LAMMPS (31 Mar 2017)
Reading data file ...
  triclinic box = (-0.894365 -0 0) to (25.7972 30.183 9.7269) with tilt (0 -1.78873 0)
  3 by 4 by 2 MPI processor grid
  reading atoms ...
  864 atoms
Finding 1-2 1-3 1-4 neighbors ...
  special bond factors lj:   0          0          0         
  special bond factors coul: 0          0          0         
  0 = max # of 1-2 neighbors
  0 = max # of 1-3 neighbors
  0 = max # of 1-4 neighbors
  1 = max # of special neighbors
Reading potential file ffield.reax.weak2017m with DATE: 2012-01-06
WARNING: Resetting reneighboring criteria during minimization (../min.cpp:168)
Neighbor list info ...
  update every 1 steps, delay 0 steps, check yes
  max neighbors/atom: 2000, page size: 100000
  master list distance cutoff = 12
  ghost atom cutoff = 12
  binsize = 6, bins = 5 6 2
  2 neighbor lists, perpetual/occasional/extra = 2 0 0
  (1) pair reax/c, perpetual
      attributes: half, newton off, ghost
      pair build: half/bin/newtoff/ghost
      stencil: half/ghost/bin/3d/newtoff
      bin: standard
  (2) fix qeq/reax, perpetual, copy from (1)
      attributes: half, newton off, ghost
      pair build: copy
      stencil: none
      bin: none
Setting up cg style minimization ...
  Unit style    : real
Per MPI rank memory allocation (min/avg/max) = 72.89 | 73.01 | 73.12 Mbytes
Step Temp E_pair E_mol TotEng Press Volume 
       0          150   -71092.032            0   -70706.166    358345.72    7836.3058 
      10          150   -72387.362            0   -72001.496    413552.67    8073.7537 
Loop time of 0.661218 on 24 procs for 10 steps with 864 atoms

98.6% CPU use with 24 MPI tasks x no OpenMP threads

Minimization stats:
  Stopping criterion = max iterations
  Energy initial, next-to-last, final = 
        -71092.0319046     -72243.5195348     -72387.3622766
  Force two-norm initial, final = 122193 143954
  Force max component initial, final = 122088 143874
  Final line search alpha, max atom move = 6.82793e-09 0.000982361
  Iterations, force evaluations = 10 10

MPI task timing breakdown:
Section |  min time  |  avg time  |  max time  |%varavg| %total
---------------------------------------------------------------
Pair    | 0.65361    | 0.65383    | 0.65415    |   0.0 | 98.88
Bond    | 9.5367e-07 | 4.1525e-06 | 7.8678e-06 |   0.0 |  0.00
Neigh   | 0          | 0          | 0          |   0.0 |  0.00
Comm    | 0.0015411  | 0.0019075  | 0.0020752  |   0.3 |  0.29
Output  | 3.314e-05  | 3.8217e-05 | 0.00013399 |   0.0 |  0.01
Modify  | 0.00037718 | 0.00050718 | 0.00069761 |   0.0 |  0.08
Other   |            | 0.004935   |            |       |  0.75

Nlocal:    36 ave 38 max 34 min
Histogram: 12 0 0 0 0 0 0 0 0 12
Nghost:    3272.62 ave 3281 max 3264 min
Histogram: 3 3 6 0 0 0 0 3 6 3
Neighs:    28000 ave 29551 max 26449 min
Histogram: 12 0 0 0 0 0 0 0 0 12

Total # of neighbors = 672000
Ave neighs/atom = 777.778
Ave special neighs/atom = 0
Neighbor list builds = 0
Dangerous builds = 0
Setting up Verlet run ...
  Unit style    : real
  Current step  : 10
  Time step     : 0.15
Per MPI rank memory allocation (min/avg/max) = 71.77 | 71.88 | 72 Mbytes
Step Temp Density Cella Cellb Cellc 
      10          150    1.6226818    26.958516     30.48483       9.9889 
      11    164.22416    1.5223682    27.538093    31.140219     10.20365 
      12    191.68109    1.4066608    28.273353    31.971654    10.476084 
      13    238.81639    1.3721627    28.508338    32.237376    10.563153 
      14    252.34258    1.2463622    29.436919    33.287421    10.907219 
      15    304.81462     1.373715    28.497595    32.225229    10.559173 
      16    390.11342      1.29967    29.028821    32.825942    10.756007 
      17    409.05596    1.1303521    30.411361    34.389325    11.268277 
      18    374.98393    1.1620915    30.131933    34.073346    11.164742 
      19    351.76921    1.2252735    29.604842     33.47731    10.969439 
      20    484.20311    1.3335591     28.78081    32.545489    10.664112 
      21    567.32692     1.093917    30.745317    34.766964    11.392018 
      22    518.74617    1.1476438     30.25785    34.215734    11.211397 
      23    482.91869    1.2134311     29.70084    33.585864    11.005009 
      24    407.13021    1.2882282    29.114511     32.92284    10.787758 
      25    449.78887     1.435913     28.08004    31.753055    10.404457 
      26    462.26273    1.2808673    29.170176    32.985787    10.808383 
      27     443.3981    1.3432881    28.711158    32.466727    10.638304 
      28    444.52082    1.3369016    28.756804    32.518344    10.655217 
      29    512.21114    1.3752054    28.487297    32.213583    10.555357 
      30    499.13367    1.2661549    29.282725    33.113057    10.850086 
      31     421.5202    1.3098527    28.953403    32.740659    10.728063 
      32    548.01158    1.4283697    28.129384    31.808854     10.42274 
      33     612.7077    1.1124782    30.573366    34.572522    11.328305 
      34    537.36241    1.1584169    30.163759    34.109336    11.176534 
      35    478.67251    1.2166696    29.674464    33.556038    10.995236 
      36    436.37983    1.2921675    29.084894     32.88935    10.776784 
      37    372.49108    1.3526479    28.644781    32.391667    10.613709 
      38     373.0974    1.4451329    28.020196    31.685383    10.382283 
      39    367.37498    1.3201552    28.877888    32.655266    10.700082 
      40    334.53695    1.3400134    28.734527    32.493153    10.646963 
      41    284.35879    1.3800232    28.454107    32.176053    10.543059 
      42    289.27239    1.4760525    27.823163    31.462577    10.309276 
      43    290.38986    1.3316082    28.794858    32.561375    10.669317 
      44    270.33524    1.3462593    28.690021    32.442825    10.630472 
      45    253.01266    1.3797639     28.45589    32.178068     10.54372 
      46    213.55264    1.4150397    28.217437    31.908424    10.455366 
      47    223.14157    1.5091608    27.618193    31.230796    10.233329 
      48    232.10607    1.3277688    28.822586     32.59273    10.679591 
      49     218.9853    1.3504538    28.660286      32.4092    10.619454 
      50    210.52626     1.385242     28.41833    32.135595    10.529803 
      51     200.2536    1.4087339    28.259477    31.955963    10.470943 
      52    183.82667    1.4355751    28.082243    31.755546    10.405273 
      53    176.10477    1.4911435    27.728984    31.356079     10.27438 
      54    171.10351    1.4593968    27.928609    31.581816    10.348347 
      55     186.1181    1.5021415    27.661145    31.279366    10.249244 
      56    190.67897     1.423792    28.159498    31.842907    10.433898 
      57    212.17089    1.4324801    28.102453      31.7784    10.412761 
      58    239.85497    1.4861611    27.759937    31.391081    10.285849 
      59    265.40627    1.4585228    27.934186    31.588123    10.350414 
      60    289.46207    1.4899308    27.736505    31.364584    10.277167 
      61    268.20905    1.4033082     28.29585    31.997095    10.484421 
      62    296.32195    1.4365844    28.075665    31.748108    10.402836 
      63    254.67336    1.5378721    27.445239    31.035219    10.169245 
      64     182.6622    1.2561744    29.360072    33.200523    10.878745 
      65    172.21625    1.3145479     28.91889    32.701631    10.715275 
      66     172.0772    1.3707615    28.518048    32.248357    10.566751 
      67    191.63101     1.413286    28.229103    31.921616    10.459689 
      68    197.55243    1.5301989    27.491038    31.087008    10.186214 
      69    177.73772    1.2871196    29.122868     32.93229    10.790854 
      70    176.63448    1.3367299    28.758035    32.519735    10.655673 
      71    190.01178    1.3832371    28.432053    32.151113    10.534888 
      72    188.20861    1.4595971    27.927331    31.580371    10.347874 
      73    174.50099    1.4092254     28.25619    31.952247    10.469725 
      74    164.84185    1.4788288    27.805741    31.442876    10.302821 
      75    160.01117    1.2927517    29.080513    32.884395     10.77516 
      76     169.0567    1.3356434    28.765831    32.528552    10.658562 
      77    177.56696    1.3923165    28.370116    32.081074    10.511938 
      78    173.10982    1.4741146     27.83535    31.476358    10.313792 
      79    165.26241    1.3505564     28.65956     32.40838    10.619185 
      80    176.09536     1.376916    28.475495    32.200238    10.550984 
      81    170.56288    1.4259637    28.145196    31.826734    10.428599 
      82    146.89145    1.4780474     27.81064    31.448416    10.304636 
      83    132.66577    1.3401086    28.733846    32.492383    10.646711 
      84    146.28928    1.3679039    28.537893    32.270798    10.574104 
      85    151.54356    1.4096051    28.253654    31.949378    10.468785 
      86    139.21599    1.4595855    27.927405    31.580455    10.347901 
      87     130.2894    1.3807863    28.448865    32.170125    10.541117 
      88    149.79321    1.3938527    28.359689    32.069284    10.508075 
      89    163.73399    1.4247252    28.153349    31.835953     10.43162 
      90    168.57938    1.4386459    28.062248    31.732936    10.397864 
      91    182.77365     1.401461    28.308276    32.011146    10.489025 
      92    215.98714    1.4146588    28.219969    31.911288    10.456304 
      93    239.24559    1.4212032    28.176586     31.86223     10.44023 
      94    260.00539    1.3921315    28.371373    32.082496    10.512404 
      95    253.20626    1.4263366    28.142743     31.82396     10.42769 
      96    218.98583    1.3471053    28.684014    32.436032    10.628246 
      97    192.90749    1.4141346    28.223455     31.91523    10.457596 
      98     171.3276    1.3596899    28.595244    32.335651    10.595354 
      99    136.47434    1.4405348    28.049978     31.71906    10.393318 
     100    92.495084    1.2845218    29.142486    32.954475    10.798123 
     101    104.04559    1.3138843    28.923758    32.707136    10.717078 
     102    90.458336    1.4052799     28.28261    31.982123    10.479515 
     103    82.391654    1.3189778    28.886479     32.66498    10.703265 
     104    88.110329    1.3968554    28.339354    32.046289     10.50054 
     105    86.416062     1.339959    28.734916    32.493592    10.647107 
     106    98.233863    1.3963892    28.342508    32.049855    10.501709 
     107    113.95266    1.3448376    28.700127    32.454253    10.634217 
     108    136.94583    1.3948264    28.353089     32.06182    10.505629 
     109    164.62902    1.3636261    28.567703    32.304508     10.58515 
     110    192.55266    1.3978454    28.332662    32.038722     10.49806 
     111    210.21625    1.3645421     28.56131    32.297277    10.582781 
     112    226.38043     1.409215     28.25626    31.952326    10.469751 
     113    229.87253    1.3539204    28.635804    32.381516    10.610383 
     114    232.03952    1.3944987     28.35531    32.064332    10.506452 
     115    219.19945    1.3843886    28.424168    32.142197    10.531966 
     116     208.6211    1.3757733    28.483377    32.209151    10.553905 
     117    202.45679    1.3919365    28.372698    32.083994    10.512895 
     118    194.18662    1.3707632    28.518037    32.248344    10.566747 
     119    190.13854    1.3955614     28.34811    32.056191    10.503784 
     120    174.68792     1.354674    28.630493     32.37551    10.608415 
     121     158.0821    1.4224592    28.168291    31.852849    10.437156 
     122    143.74457    1.2856833    29.133708    32.944549    10.794871 
     123    134.34698    1.3097515    28.954149    32.741502    10.728339 
     124    118.90301    1.3687889    28.531741    32.263841    10.571825 
     125     110.2204    1.4313429    28.109894    31.786814    10.415518 
     126    122.27015    1.2845737    29.142094    32.954031    10.797978 
     127     122.5852    1.3188732    28.887242    32.665844    10.703548 
     128     110.6791    1.3659009    28.551836    32.286564    10.579271 
     129    106.30405    1.4255472    28.147936    31.829833    10.429614 
     130     114.3214    1.3399067     28.73529    32.494015    10.647245 
     131    118.12937    1.3665472    28.547334    32.281473    10.577602 
     132    124.85785    1.4118711     28.23853    31.932276    10.463182 
     133    140.11507    1.3946328    28.354401    32.063304    10.506115 
     134    174.91048    1.4023112    28.302554    32.004676    10.486905 
     135    224.94363    1.4020174    28.304531    32.006911    10.487637 
     136    279.75962     1.398602    28.327552    32.032943    10.496167 
     137    320.19724    1.4014635     28.30826    32.011127    10.489019 
     138    327.67941    1.3889561    28.392976    32.106925    10.520409 
     139    295.95261    1.4210675    28.177483    31.863244    10.440562 
     140    244.40132    1.3315638    28.795179    32.561738    10.669436 
     141    217.32702    1.3777327    28.469868    32.193874    10.548899 
     142    167.81256    1.4404642    28.050436    31.719578    10.393487 
     143    139.43746    1.3053113    28.986942    32.778584     10.74049 
     144    138.08261    1.3368745    28.756999    32.518564    10.655289 
     145    120.43536    1.4111569    28.243293    31.937663    10.464947 
     146    95.172081    1.3610286    28.585866    32.325046     10.59188 
     147    87.195668    1.3937348    28.360489    32.070189    10.508371 
     148    104.17734    1.3878943    28.400215    32.115111    10.523091 
     149    136.28209    1.3901748    28.384678    32.097541    10.517334 
     150    171.46145     1.397507    28.334949    32.041307    10.498908 
     151    189.26501    1.3851831    28.418732     32.13605    10.529952 
     152    187.60261    1.4164434    28.208112     31.89788    10.451911 
     153    186.32722    1.3426001    28.716061    32.472272    10.640121 
     154    187.10373    1.3876389    28.401957    32.117081    10.523736 
     155    161.95679    1.4131099    28.230276    31.922942    10.460123 
     156    152.43068    1.3415262    28.723722    32.480934    10.642959 
     157    155.59606    1.3912937    28.377066    32.088934    10.514513 
     158    169.45572     1.394621    28.354481    32.063395    10.506145 
     159    191.37594    1.3743908    28.492924    32.219946    10.557442 
     160     216.3516    1.4056156    28.280359    31.979577     10.47868 
     161    215.19234    1.3602003    28.591667    32.331605    10.594029 
     162    205.09862    1.4333278    28.096912    31.772134    10.410708 
     163    196.39611    1.3048334    28.990481    32.782586    10.741801 
     164     182.9388    1.3276001    28.823807    32.594111    10.680044 
     165    162.90888    1.3879915    28.399552    32.114361    10.522845 
     166    138.55444    1.4287209    28.127079    31.806247    10.421886 
     167    129.47354    1.3392662     28.73987    32.499194    10.648942 
     168    118.95006    1.3783167    28.465846    32.189326    10.547409 
     169    109.85025    1.4332011     28.09774    31.773071    10.411015 
     170     108.5915    1.3500654    28.663034    32.412308    10.620473 
     171    101.61281     1.384703    28.422017    32.139764    10.531169 
     172    95.763888    1.4262074    28.143593    31.824921    10.428005 
     173    94.621048    1.3762091     28.48037     32.20575     10.55279 
     174    104.66794    1.3976587    28.333924    32.040149    10.498528 
     175     124.7995    1.4126238    28.233514    31.926604    10.461323 
     176    153.82638    1.3848045    28.421322    32.138979    10.530911 
     177    190.90572    1.4093527     28.25534    31.951285     10.46941 
     178    221.27891    1.3754245    28.485784    32.211873    10.554796 
     179    227.27593    1.4280228    28.131662    31.811429    10.423584 
     180    201.23502    1.3248446    28.843776    32.616692    10.687443 
     181    209.44238    1.3527526    28.644042    32.390832    10.613436 
     182    197.21649    1.4423125    28.038448    31.706023    10.389046 
     183    176.05282      1.31767    28.896033    32.675784    10.706805 
     184    171.54308    1.3553631     28.62564    32.370023    10.606617 
     185    143.06912    1.4105018    28.247665    31.942606    10.466567 
     186    120.37783    1.3475808    28.680639    32.432216    10.626996 
     187     114.1407    1.3798413    28.455358    32.177467    10.543523 
     188    129.07762    1.3792944    28.459119    32.181719    10.544916 
     189    156.10534    1.3744999     28.49217    32.219094    10.557163 
     190    182.59308    1.3873947    28.403624    32.118966    10.524354 
     191     199.4568    1.3836581    28.429169    32.147852    10.533819 
     192    198.23838    1.3886708    28.394921    32.109124    10.521129 
     193    183.34442    1.3937528    28.360367     32.07005    10.508326 
     194    164.06822    1.3945919    28.354678    32.063617    10.506218 
     195    151.99122    1.3986081    28.327511    32.032897    10.496152 
     196    151.67422    1.3999179    28.318674    32.022903    10.492877 
     197    159.65856    1.4032569    28.296195    31.997484    10.484548 
     198    169.71074    1.4026611    28.300201    32.002014    10.486032 
     199    180.02349    1.4083581     28.26199    31.958805    10.471874 
     200    184.53766    1.3986731    28.327072      32.0324    10.495989 
     201    187.88811    1.4279654    28.132039    31.811856    10.423724 
     202    172.65072    1.3509479    28.656791    32.405249     10.61816 
     203    160.35115    1.3890328    28.392454    32.106334    10.520215 
     204    148.01893     1.462435    27.909255     31.55993    10.341176 
     205    141.83252     1.297451    29.045361    32.844645    10.762136 
     206    135.00748    1.3265582    28.831351    32.602642    10.682839 
     207    125.03429    1.3788002    28.462518    32.185563    10.546176 
     208     110.6395    1.4419648    28.040702    31.708572    10.389881 
     209    102.72471    1.3643862    28.562398    32.298508    10.583184 
     210    98.134988    1.4081713    28.263239    31.960218    10.472337 
     211    108.98862    1.4190757     28.19066    31.878145    10.445445 
     212    128.94782    1.3951282    28.351044    32.059508    10.504871 
     213    155.26053    1.4291626    28.124181     31.80297    10.420812 
     214    173.58086    1.3917357    28.374061    32.085536      10.5134 
     215    190.71788     1.445486    28.017914    31.682803    10.381437 
     216    197.96498    1.3672945    28.542132    32.275592    10.575675 
     217    202.78442    1.4162229    28.209576    31.899535    10.452453 
     218    195.62983    1.4231174    28.163947    31.847938    10.435547 
     219    187.71795     1.395247    28.350239    32.058598    10.504573 
     220     181.8598    1.4328243    28.100202    31.775855    10.411927 
     221    170.62803    1.3843227    28.424619    32.142707    10.532133 
     222    163.53719    1.4322117    28.104208    31.780385    10.413412 
     223    149.92409    1.3851367     28.41905     32.13641     10.53007 
     224    144.24759    1.4270915     28.13778    31.818348    10.425851 
     225    136.80434    1.3931165    28.364684    32.074932    10.509925 
     226    136.37438    1.4247121    28.153435    31.836051    10.431652 
     227    135.81045      1.39211    28.371518     32.08266    10.512458 
     228    136.22017    1.4303632     28.11631     31.79407    10.417896 
     229    131.03484    1.3777532    28.469726    32.193714    10.548846 
     230    125.83028    1.4340657    28.092092    31.766683    10.408922 
     231    118.85311    1.3665068    28.547615    32.281792    10.577707 
     232    117.41552    1.4177868      28.1992    31.887802    10.448609 
     233    112.90052    1.4083688    28.261918    31.958724    10.471848 
     234    119.38552    1.4005877    28.314159    32.017798    10.491204 
     235    136.90573    1.4172302    28.202891    31.891976    10.449976 
     236    155.89734    1.3951479     28.35091    32.059357    10.504822 
     237    181.44501    1.4315936    28.108253    31.784958     10.41491 
     238    189.90362    1.3750999    28.488026    32.214408    10.555627 
     239    194.85997    1.4415353    28.043487     31.71172    10.390913 
     240    193.82869    1.3670427    28.543884    32.277573    10.576324 
     241    185.64878    1.4151001    28.217035     31.90797    10.455217 
     242    174.32953     1.442977    28.034143    31.701155    10.387451 
     243     165.9775    1.3674636    28.540956    32.274261    10.575239 
     244    158.28571    1.4114104    28.241602     31.93575     10.46432 
     245    157.78215    1.4452651    28.019342    31.684417    10.381966 
     246    150.96211     1.384196    28.425486    32.143687    10.532454 
     247    143.08698    1.4274628     28.13534    31.815589    10.424947 
     248     143.4635    1.4287732    28.126736    31.805859    10.421759 
     249    141.06803    1.4142398    28.222755    31.914438    10.457337 
     250    141.98287    1.4441138    28.026786    31.692835    10.384724 
     251    139.64972    1.3984873    28.328327    32.033819    10.496454 
     252    138.36214     1.445922    28.015098    31.679618    10.380394 
     253    133.65696    1.3968165    28.339617    32.046586    10.500637 
     254    131.45837    1.4455573    28.017454    31.682282    10.381267 
     255    127.17697    1.3931453    28.364489    32.074711    10.509853 
     256    127.84831    1.4392236    28.058493    31.728689    10.396473 
     257    124.16664    1.3992465    28.323202    32.028024    10.494555 
     258    129.21864    1.4290839    28.124697    31.803554    10.421003 
     259    137.82828    1.4092048    28.256329    31.952403    10.469777 
     260    154.88272    1.4224867    28.168109    31.852644    10.437089 
     261    175.41587    1.4148404    28.218762    31.909922    10.455857 
     262    189.65902     1.420374    28.182068    31.868429    10.442261 
     263     189.4971    1.4096265     28.25351    31.949216    10.468732 
     264    178.16427    1.4280728    28.131333    31.811058    10.423462 
     265    157.77968    1.3938778    28.359519    32.069092    10.508012 
     266    142.69061    1.4412216    28.045521    31.714021    10.391666 
     267    132.63455    1.3723434    28.507087    32.235962     10.56269 
     268    127.21845     1.417677    28.199928    31.888625    10.448879 
     269     144.3945    1.4385683    28.062753    31.733507    10.398051 
     270    158.15376    1.3826789    28.435879     32.15544    10.536305 
     271     165.9361    1.4336615    28.094732    31.769669      10.4099 
     272    183.71158    1.4318273    28.106723    31.783229    10.414344 
     273    184.62374    1.4196134      28.1871    31.874119    10.444126 
     274    182.50209    1.4529361    27.969944    31.628558    10.363663 
     275    174.36924    1.3917735    28.373805    32.085246    10.513305 
     276    161.85979    1.4382637    28.064733    31.735746    10.398785 
     277    143.81838    1.4418641    28.041354    31.709309    10.390123 
     278    133.43544     1.411775     28.23917    31.933001    10.463419 
     279    132.53907    1.4518735    27.976766    31.636272    10.366191 
     280    129.31288    1.3988457    28.325907    32.031083    10.495558 
     281    131.98407    1.4513168    27.980343    31.640317    10.367516 
     282    131.38919    1.4080285    28.264195    31.961298    10.472691 
     283    137.10514     1.458088    27.936962    31.591262    10.351442 
     284    136.45761    1.3961432    28.344172    32.051737    10.502325 
     285    139.33882    1.4515699    27.978716    31.638478    10.366913 
     286    139.31369    1.4218633    28.172225    31.857298    10.438614 
     287    144.81628    1.4587651     27.93264    31.586374    10.349841 
     288    143.63858    1.4081837    28.263156    31.960124    10.472306 
     289    147.69486    1.4638019    27.900565    31.550104    10.337956 
     290     145.0414    1.4152321    28.216158    31.906978    10.454892 
     291    146.97039    1.4610214    27.918253    31.570106     10.34451 
     292    146.71801    1.4248891    28.152269    31.834733     10.43122 
     293    150.64618    1.4639079    27.899891    31.549342    10.337706 
     294    149.85411    1.4204473    28.181584    31.867881    10.442081 
     295    150.67468    1.4680392    27.873696     31.51972       10.328 
     296    144.26639    1.4170703    28.203952    31.893176     10.45037 
     297     142.5188    1.4614039    27.915817    31.567351    10.343607 
     298    143.53721    1.4305867    28.114846    31.792414    10.417353 
     299    154.15339    1.4723781    27.846288    31.488727    10.317845 
     300    159.91661    1.4074562    28.268025     31.96563    10.474111 
     301    167.68223    1.4524047    27.973355    31.632415    10.364927 
     302    170.41636    1.4605884    27.921012    31.573225    10.345532 
     303    169.28071    1.4190349     28.19093     31.87845    10.445545 
     304    174.78237    1.4705316    27.857939    31.501902    10.322162 
     305    172.27591    1.4160857    28.210487    31.900565    10.452791 
     306    174.01421    1.4662526    27.885012    31.532516    10.332193 
     307    169.18043    1.4344704     28.08945    31.763696    10.407943 
     308    167.74944    1.4661751    27.885503    31.533072    10.332375 
     309    160.41869    1.4331586    28.098018    31.773384    10.411118 
     310    158.85627    1.4763265    27.821442    31.460631    10.308639 
     311    152.91653    1.4226817    28.166822    31.851189    10.436612 
     312    150.77347    1.4715867    27.851279    31.494372    10.319694 
     313    145.77705    1.4433737    28.031575    31.698251    10.386499 
     314    146.84078    1.4617367    27.913698    31.564955    10.342822 
     315     151.4469    1.4516092    27.978463    31.638192     10.36682 
     316    160.20824    1.4603421    27.922581       31.575    10.346114 
     317     168.4783    1.4530925     27.96894    31.627423    10.363291 
     318    174.20321    1.4655024    27.889769    31.537896    10.333956 
     319    168.95731    1.4402018    28.052139    31.721505    10.394119 
     320    163.77835    1.4935301    27.714206    31.339368    10.268905 
     321    157.90103    1.3896725    28.388097    32.101407      10.5186 
     322    155.71641    1.4086833    28.259815    31.956346    10.471068 
     323    147.22608    1.4792783    27.802924     31.43969    10.301777 
     324    128.99587    1.4439634    28.027759    31.693935    10.385085 
     325    121.22492    1.4763728    27.821151    31.460302    10.308531 
     326    119.60691    1.4492952    27.993346    31.655021    10.372334 
     327    124.58347    1.4758753    27.824276    31.463836    10.309689 
     328    129.52599    1.4560379    27.950068    31.606083    10.356298 
     329    137.47674    1.4782649    27.809276    31.446873    10.304131 
     330    144.14518    1.4490471    27.994943    31.656827    10.372926 
     331    147.60932    1.4891727    27.741211    31.369905    10.278911 
     332    148.19286    1.4291645    28.124169    31.802956    10.420808 
     333    150.38237    1.4811177     27.79141    31.426671    10.297511 
     334     144.0872    1.4411136    28.046222    31.714813    10.391926 
     335    142.96226    1.4769714    27.817391    31.456051    10.307138 
     336    141.00794     1.427613    28.134353    31.814473    10.424581 
     337    145.67669     1.478036    27.810711    31.448497    10.304663 
     338    146.32018    1.4224152    28.168581    31.853178    10.437264 
     339     154.1306    1.4741764    27.834961    31.475918    10.313648 
     340     158.6996     1.439351    28.057665    31.727753    10.396166 
     341    168.47907    1.4701317    27.860464    31.504758    10.323098 
     342    175.94837    1.4474626    28.005155    31.668375     10.37671 
     343    182.42877    1.4729512    27.842676    31.484643    10.316507 
     344    176.66111    1.4507236    27.984155    31.644628    10.368929 
     345     171.7259    1.4822057    27.784608    31.418979    10.294991 
     346     159.8393    1.4436505    28.029783    31.696225    10.385835 
     347    154.89269    1.4928908    27.718161    31.343841     10.27037 
     348    148.13069    1.4474954    28.004944    31.668136    10.376631 
     349    144.58308    1.4871931    27.753514    31.383818    10.283469 
     350    144.28215    1.4705776    27.857648    31.501573    10.322054 
     351    144.80861    1.4806934    27.794064    31.429672    10.298494 
     352     146.5051    1.4809267    27.792604    31.428022    10.297954 
     353    148.28065    1.4824193    27.783273     31.41747    10.294496 
     354    151.67095    1.4847455    27.768756    31.401054    10.289117 
     355    154.76942      1.48238    27.783519    31.417748    10.294587 
     356    157.94102      1.48916     27.74129    31.369995     10.27894 
     357     159.6297    1.4750838    27.829252    31.469463    10.311533 
     358     159.3785    1.5008074    27.669339    31.288632     10.25228 
     359    153.87083    1.4505537    27.985248    31.645864    10.369334 
     360    151.03131    1.5065513    27.634129    31.248817    10.239234 
     361    140.93185     1.448683    27.997289     31.65948    10.373795 
     362    138.92109    1.4967749    27.694164    31.316705    10.261479 
     363    135.42954    1.4672936    27.878416    31.525058    10.329749 
     364    140.85409    1.4978817    27.687342     31.30899    10.258951 
     365    143.02436    1.4607284     27.92012    31.572217    10.345202 
     366    152.82924    1.5116906    27.602778    31.213365    10.227617 
     367    153.66019    1.4512188    27.980973    31.641029    10.367749 
     368    153.66515    1.5080885    27.624737    31.238196    10.235754 
     369     151.9587    1.4797677    27.799859    31.436225    10.300642 
     370    149.10845      1.50211    27.661338    31.279585    10.249316 
     371    145.85579    1.4851922    27.765972    31.397905    10.288085 
     372     143.5092    1.5075105    27.628267    31.242188    10.237062 
     373    135.89937    1.4801293    27.797594    31.433664    10.299802 
     374    132.66402    1.5173024    27.568706    31.174836    10.214993 
     375    131.04762    1.4709201    27.855486    31.499128    10.321253 
     376    136.87582     1.511238    27.605533    31.216481    10.228638 
     377    146.51385    1.4958125    27.700103     31.32342    10.263679 
     378    158.09555    1.5120867    27.600368    31.210639    10.226724 
     379    163.09782    1.4923252    27.721663    31.347801    10.271668 
     380    169.52185     1.524923    27.522706    31.122818    10.197948 
     381    169.89288    1.4802485    27.796848    31.432821    10.299526 
     382     170.2406    1.5191877    27.557298    31.161935    10.210766 
     383    165.28256    1.5002993    27.672462    31.292164    10.253437 
     384    164.43843    1.5050859    27.643095    31.258955    10.242556 
     385    162.15736    1.5072656    27.629764     31.24388    10.237616 
     386    157.95786    1.5004252    27.671688    31.291288     10.25315 
     387    154.26521    1.5131889    27.593665     31.20306    10.224241 
     388    147.59164    1.4924423    27.720938    31.346981    10.271399 
     389    145.19031    1.5281205    27.503496    31.101096    10.190831 
     390    137.51377    1.4687339      27.8693    31.514749    10.326372 
     391    135.32268    1.5253581    27.520088    31.119859    10.196979 
     392    129.59542    1.4921697    27.722626    31.348889    10.272024 
     393    132.56605    1.5293048    27.496394    31.093065    10.188199 
     394    132.22657    1.4745014    27.832916    31.473606     10.31289 
     395    136.72766    1.5272327    27.508824    31.107121    10.192805 
     396    140.60709    1.5003773    27.671982    31.291621     10.25326 
     397    149.63922    1.5331713    27.473261    31.066906    10.179628 
     398    153.00545      1.48199    27.785956    31.420503     10.29549 
     399    159.89907    1.5323803    27.477987     31.07225    10.181379 
     400    159.93474    1.5049391    27.643994    31.259972    10.242889 
     401    161.93978    1.5294464    27.495546    31.092106    10.187885 
     402    160.67657    1.5062518    27.635961    31.250889    10.239913 
     403    161.97536    1.5303137    27.490351    31.086232     10.18596 
     404    159.01778    1.5070695    27.630962    31.245235     10.23806 
     405    156.73062    1.5318437    27.481195    31.075878    10.182567 
     406    149.87517    1.5058959    27.638138     31.25335    10.240719 
     407    146.04338    1.5316264    27.482495    31.077348    10.183049 
     408    139.30289    1.5094513    27.616421    31.228793    10.232673 
     409    136.62328    1.5242268    27.526895    31.127556    10.199501 
     410    137.13212    1.5204038    27.549948    31.153624    10.208042 
     411    140.67241    1.5180396    27.564243    31.169789    10.213339 
     412    147.90987    1.5269832    27.510322    31.108816     10.19336 
     413    154.24573     1.516942    27.570889    31.177305    10.215802 
     414     161.2417    1.5316823     27.48216     31.07697    10.182925 
     415    161.56435     1.514117    27.588026    31.196683    10.222151 
     416     164.4054    1.5437181    27.410551    30.995993    10.156392 
     417    158.56907    1.5002796    27.672583    31.292301    10.253482 
     418    159.47971    1.5549598    27.344336    30.921117    10.131857 
     419    154.81558    1.4968205    27.693884    31.316387    10.261375 
     420    152.35752    1.5428489    27.415697    31.001813    10.158299 
     421    151.15898    1.5363918    27.454051    31.045184     10.17251 
     422     147.5271    1.5250643    27.521856    31.121857    10.197633 
     423    151.13061    1.5537237    27.351585    30.929315    10.134543 
     424    147.90133    1.5176565    27.566562    31.172411    10.214198 
     425     150.2717    1.5634431    27.294789    30.865089    10.113499 
     426    148.88782    1.5210808     27.54586    31.149002    10.206528 
     427    149.04218     1.560499    27.311943    30.884487    10.119855 
     428    146.43932    1.5277161    27.505922     31.10384     10.19173 
     429    146.96429    1.5571566    27.331471    30.906569     10.12709 
     430     142.7262    1.5310979    27.485656    31.080923     10.18422 
     431    142.89141    1.5559634    27.338455    30.914467    10.129678 
     432    143.66392    1.5326014    27.476666    31.070756    10.180889 
     433    150.83226     1.562579    27.299819    30.870777    10.115363 
     434    155.24291    1.5238508     27.52916    31.130117     10.20034 
     435    161.24309    1.5735461    27.236248     30.79889    10.091807 
     436    157.66019    1.5167147    27.572266    31.178862    10.216312 
     437     153.5158    1.5659361    27.280297    30.848701    10.108129 
     438    141.73819    1.5369812    27.450541    31.041215    10.171209 
     439    134.36004    1.5549203    27.344567    30.921379    10.131943 
     440    132.03938    1.5476626    27.387245    30.969638    10.147756 
     441    135.92091    1.5481044    27.384639    30.966692    10.146791 
     442     144.6638    1.5544132     27.34754    30.924741    10.133045 
     443    152.14532     1.548236    27.383863    30.965815    10.146503 
     444    159.63578    1.5618238    27.304219    30.875752    10.116993 
     445    160.93932    1.5503561    27.371375    30.951693    10.141876 
     446    162.40342    1.5717276    27.246748    30.810764    10.095698 
     447    157.51839    1.5459013    27.397641    30.981395    10.151608 
     448    158.65925    1.5867657      27.1604    30.713122    10.063704 
     449    153.91643    1.5381584    27.443537    31.033294    10.168614 
     450    152.47849    1.5846165    27.172674    30.727001    10.068252 
     451    149.98856    1.5605975    27.311368    30.883837    10.119642 
     452    150.10958    1.5801125    27.198467    30.756168    10.077809 
     453    148.07404    1.5620087    27.303141    30.874534    10.116593 
     454    150.23666    1.5933082    27.123174    30.671026     10.04991 
     455    146.70822    1.5474853     27.38829    30.970821    10.148144 
     456    147.89965    1.5966747    27.104098    30.649454    10.042842 
     457    143.17253    1.5553624    27.341976    30.918449    10.130983 
     458    143.05014    1.5928984    27.125499    30.673655    10.050772 
     459    139.43654    1.5578182    27.327601    30.902193    10.125657 
     460    141.24515     1.592385    27.128414    30.676952    10.051852 
     461    141.29538     1.558223    27.325235    30.899517     10.12478 
     462    146.16182    1.5942965    27.117568    30.664687    10.047833 
     463    146.70869    1.5557213    27.339873    30.916071    10.130204 
     464    151.00413    1.5964471    27.105386    30.650911    10.043319 
     465    148.35442     1.556146    27.337386    30.913258    10.129282 
     466    149.65639    1.5916709    27.132471    30.681539    10.053355 
     467    147.64993    1.5651693    27.284751    30.853738    10.109779 
     468    149.54188    1.5833244    27.180063    30.735357     10.07099 
     469    153.77367    1.5784277    27.208141    30.767107    10.081393 
     470    159.27209    1.5766168    27.218554    30.778883    10.085252 
     471    167.09603    1.5865858    27.161427    30.714283    10.064084 
     472    171.14898    1.5780991    27.210029    30.769243    10.082093 
     473    173.63972    1.5911818     27.13525    30.684682    10.054385 
     474    170.36068    1.5803196    27.197279    30.754824    10.077368 
     475    167.15929    1.5962491    27.106506    30.652178    10.043735 
     476    161.22302    1.5805276    27.196086    30.753475    10.076926 
     477    158.96211    1.5979831    27.096698    30.641087      10.0401 
     478    156.47613    1.5837548    27.177601    30.732573    10.070077 
     479    157.24093    1.5991436    27.090142    30.633673    10.037671 
     480    156.17277    1.5819862    27.187725    30.744021    10.073828 
     481    156.74585    1.6064726    27.048882    30.587017    10.022383 
     482    150.98317    1.5696436    27.258801    30.824394    10.100164 
     483    147.76504    1.6206541    26.969754    30.497538    9.9930641 
     484    139.38126    1.5494297    27.376829     30.95786    10.143897 
     485     135.9745    1.5880919    27.152838     30.70457    10.060902 
     486    136.41074    1.6292282     26.92236    30.443944    9.9755031 
     487    136.19799    1.5314307    27.483665    31.078671    10.183483 
     488    131.22521    1.5558996    27.338829     30.91489    10.129817 
     489    137.61858    1.6325928    26.903853    30.423016    9.9686456 
     490    138.17841    1.5649297    27.286143    30.855313    10.110295 
     491    135.68364    1.6010723     27.07926    30.621368    10.033639 
     492    138.76257    1.6144444    27.004288    30.536589     10.00586 
     493    138.73127    1.5874698    27.156384     30.70858    10.062216 
     494    142.26603    1.6146997    27.002865     30.53498    10.005333 
     495    145.53112    1.6010137     27.07959    30.621741    10.033761 
     496    149.58073    1.6117759    27.019183    30.553432    10.011379 
     497    153.05026    1.6063028    27.049835    30.588094    10.022736 
     498    155.90109    1.6095691    27.031526     30.56739    10.015952 
     499    156.85441    1.6073991    27.043685    30.581139    10.020457 
     500    157.20303    1.6082164    27.039102    30.575958     10.01876 
     501    157.55788     1.608495    27.037541    30.574192    10.018181 
     502    157.78764    1.6073493    27.043964    30.581455    10.020561 
     503    157.84064    1.6076309    27.042384    30.579669    10.019976 
     504     157.8955    1.6077323    27.041816    30.579026    10.019765 
     505     158.3365    1.6092212    27.033473    30.569592    10.016674 
     506    159.10531    1.6103949    27.026904    30.562164     10.01424 
     507    160.20938     1.611706    27.019574    30.553875    10.011524 
     508    161.89819    1.6140337    27.006578    30.539179    10.006709 
     509    163.59932    1.6153718     26.99912    30.530745    10.003945 
     510     164.6593    1.6177297    26.985996    30.515904    9.9990821 
     511    164.44633    1.6187189    26.980498    30.509687    9.9970448 
     512    162.67527    1.6208259    26.968801    30.496461    9.9927111 
     513    158.67485    1.6219775    26.962417    30.489242    9.9903455 
     514    153.20095    1.6242088    26.950065    30.475273    9.9857685 
     515    147.52276    1.6250241    26.945557    30.470176    9.9840982 
     516    143.39531    1.6271796    26.933654    30.456715    9.9796878 
     517    141.75716    1.6279747    26.929268    30.451756    9.9780627 
     518    142.29158    1.6288576    26.924402    30.446253    9.9762597 
     519    143.68602    1.6289548    26.923866    30.445648    9.9760612 
     520    144.08895    1.6292255    26.922375    30.443961    9.9755086 
     521    142.61173    1.6300587    26.917787    30.438773    9.9738087 
     522    140.31346    1.6302182    26.916909    30.437781    9.9734835 
     523    138.92742    1.6316591    26.908984    30.428818    9.9705468 
     524    139.20441    1.6296329    26.920131    30.441424    9.9746773 
     525    142.03053    1.6338402    26.897004    30.415272    9.9661081 
     526    145.29733    1.6260102    26.940109    30.464015    9.9820795 
     527    149.76258    1.6398651    26.864023    30.377977    9.9538878 
     528    149.77567    1.6174839    26.987362     30.51745    9.9995885 
     529    152.12673    1.6527092    26.794251    30.299078     9.928035 
     530    148.01901    1.6053278    27.055311    30.594286    10.024765 
     531    147.48533    1.6548638    26.782617    30.285923    9.9237245 
     532    141.77334    1.6177057    26.986129    30.516055    9.9991314 
     533    138.36863    1.6391697    26.867822    30.382273    9.9552953 
     534    139.76862     1.643123    26.846257    30.357887    9.9473048 
     535    142.25142    1.6295761    26.920444    30.441778    9.9747933 
     536    148.73642    1.6451415    26.835273    30.345466    9.9432349 
     537    158.01732    1.6437293    26.842956    30.354154    9.9460816 
     538    164.54211     1.642136    26.851635    30.363968    9.9492974 
     539    168.68536    1.6520437    26.797848    30.303146     9.929368 
     540    166.16817    1.6430945    26.846412    30.358062    9.9473623 
     541    162.56793    1.6566072    26.773218    30.275294    9.9202419 
     542    156.76107    1.6467136     26.82673    30.335806    9.9400695 
     543    153.45202    1.6584286    26.763414    30.264207     9.916609 
     544    151.79038    1.6492207     26.81313    30.320426    9.9350302 
     545    153.09362    1.6596988    26.756584    30.256484    9.9140785 
     546    153.44499    1.6505984    26.805668    30.311988    9.9322653 
     547    154.09658    1.6606424    26.751515    30.250753    9.9122003 
     548    150.80162     1.652923    26.793095    30.297771    9.9276069 
     549    146.63938    1.6634257    26.736587    30.233871    9.9066689 
     550    141.30269    1.6558151    26.777487    30.280121    9.9218236 
     551    138.16988       1.6641    26.732975    30.229787    9.9053306 
     552    136.90834    1.6596124    26.757049     30.25701    9.9142507 
     553    137.93479    1.6627144    26.740399    30.238182    9.9080814 
     554    141.16455    1.6650055    26.728128    30.224306    9.9035346 
     555    145.17124    1.6630377    26.738666    30.236223    9.9074393 
     556    148.72532    1.6673095    26.715811    30.210378    9.8989707 
     557    150.04947    1.6606443    26.751505    30.250741    9.9121966 
     558    152.08813    1.6690152    26.706706    30.200082    9.8955974 
     559    153.25984    1.6586851    26.762034    30.262647    9.9160978 
     560     156.1874    1.6703534    26.699573    30.192016    9.8929542 
     561    157.22755    1.6556721    26.778258    30.280994    9.9221093 
     562    159.67868    1.6753649    26.672924    30.161881      9.88308 
     563    158.13106    1.6472129    26.824019     30.33274    9.9390651 
     564    159.05741    1.6822821    26.636316    30.120485    9.8695157 
     565    153.12935     1.644272    26.840002    30.350814    9.9449872 
     566    151.40042    1.6802755    26.646915     30.13247    9.8734428 
     567    148.12947    1.6525256    26.795243      30.3002    9.9284028 
     568    148.99382    1.6760564    26.669255    30.157733    9.8817207 
     569    149.26863    1.6606815    26.751306    30.250516    9.9121227 
     570    150.79858      1.67171    26.692348    30.183846    9.8902773 
     571    151.78064    1.6693935    26.704689    30.197801    9.8948499 
     572    151.41511    1.6696793    26.703165    30.196078    9.8942853 
     573    150.36599    1.6753451    26.673029       30.162    9.8831189 
     574    147.29802    1.6682375    26.710856    30.204775    9.8971349 
     575    145.24418    1.6779753    26.659086    30.146232    9.8779525 
     576    142.28562    1.6677854    26.713269    30.207504    9.8980291 
     577    141.03382    1.6779686    26.659121    30.146272    9.8779656 
     578    139.91807    1.6698006    26.702519    30.195347    9.8940456 
     579    141.48864    1.6760417    26.669333    30.157821    9.8817495 
     580    143.91312    1.6733654    26.683543     30.17389    9.8870148 
     581    146.28806    1.6725981    26.687623    30.178503    9.8885264 
     582    147.86312    1.6756522    26.671399    30.160157    9.8825151 
     583     147.1781    1.6722419    26.689518    30.180646    9.8892287 
     584    145.32366    1.6771038    26.663702    30.151453    9.8796632 
     585     142.6193    1.6740576    26.679866    30.169731    9.8856521 
     586    141.91886    1.6790415    26.653441     30.13985    9.8758611 
     587    144.11212    1.6786343    26.655596    30.142287    9.8766596 
     588    149.74128    1.6806975    26.644684    30.129947    9.8726164 
     589    157.88006    1.6824331    26.635519    30.119583    9.8692204 
     590    165.27015    1.6817734    26.639001    30.123521    9.8705107 
     591    170.18837    1.6851674    26.621105    30.103284    9.8638797 
     592    170.76725    1.6822149    26.636671    30.120886    9.8696471 
     593    168.04718    1.6871913    26.610456    30.091242    9.8599339 
     594    162.03486    1.6833101    26.630893    30.114352    9.8675062 
     595    156.85586     1.688945    26.601243    30.080824    9.8565202 
     596    154.22643    1.6866843    26.613123    30.094257    9.8609219 
     597    155.01683    1.6890599     26.60064    30.080142    9.8562966 
     598    156.88432      1.68873    26.602372    30.082101    9.8569385 
     599    156.97309    1.6881231    26.605559    30.085705    9.8581195 
     600    153.93477    1.6908591    26.591201    30.069469    9.8527995 
     601    147.16689    1.6887673    26.602176    30.081879    9.8568659 
     602     139.6518    1.6936367    26.576657    30.053022    9.8474102 
     603    133.40259     1.688148    26.605429    30.085557     9.858071 
     604     132.4365    1.6962192    26.563162    30.037762    9.8424102 
     605    135.65868    1.6884122    26.604041    30.083988    9.8575569 
     606      143.083    1.6970258    26.558953    30.033002    9.8408505 
     607    149.72219    1.6863888    26.614677    30.096015    9.8614977 
     608    155.22663    1.7000797     26.54304    30.015008    9.8349544 
     609    154.73275    1.6802363    26.647122    30.132704    9.8735196 
     610    153.76758    1.7062666     26.51092    29.978686    9.8230529 
     611    148.25291    1.6750268    26.674718     30.16391    9.8837449 
     612    146.11932    1.6998679    26.544143    30.016255     9.835363 
     613     144.1929    1.6912001    26.589414    30.067448    9.8521373 
     614    146.59059    1.6847319    26.623399    30.105878    9.8647295 
     615    152.65202    1.6977057    26.555407    30.028992    9.8395366 
     616    157.14137    1.6874508    26.609092      30.0897    9.8594286 
     617    159.78352    1.6915744    26.587453     30.06523    9.8514105 
     618    159.89036    1.6955834    26.566482    30.041516    9.8436403 
     619    156.40344     1.689941    26.596016    30.074913    9.8545833 
     620    152.81444    1.6995708    26.545689    30.018004     9.835936 
     621    148.58293    1.6907831      26.5916    30.069919     9.852947 
     622    147.22341    1.7030474    26.527614    29.997564    9.8292385 
     623    145.77171    1.6920528    26.584947    30.062396    9.8504819 
     624    146.31481    1.7048871    26.518069     29.98677    9.8257017 
     625    145.53566    1.6950894    26.569062    30.044434    9.8445963 
     626    145.28915    1.7055057    26.514862    29.983144    9.8245135 
     627    144.19246    1.7009387    26.538572    30.009955    9.8332986 
     628    143.37019    1.7033705    26.525936    29.995667    9.8286169 
     629    143.21983    1.7060223    26.512186    29.980117    9.8235219 
     630    143.00552    1.7051798    26.516551    29.985054    9.8251395 
     631    144.62048    1.7102577    26.490282    29.955348    9.8154058 
     632    147.96324    1.7084529    26.499607    29.965893    9.8188609 
     633    152.79795    1.7116191    26.483257    29.947404    9.8128028 
     634    157.86975    1.7122716    26.479892      29.9436    9.8115563 
     635    161.51864    1.7116101    26.483303    29.947457    9.8128201 
     636    162.94466    1.7125536    26.478439    29.941956    9.8110177 
     637    161.63274    1.7106454    26.488281    29.953085    9.8146644 
     638    158.82113    1.7133358    26.474409    29.937399    9.8095244 
     639    154.95585    1.7089047    26.497271    29.963252    9.8179957 
     640    152.19663    1.7141996    26.469961     29.93237    9.8078765 
     641    149.69883    1.7057979    26.513348    29.981432    9.8239525 
     642    149.68597    1.7156513    26.462493    29.923925    9.8051094 
     643     149.7589    1.7048177    26.518428    29.987177     9.825835 
     644    151.77694    1.7134524    26.473808     29.93672    9.8093018 
     645    151.95176    1.7072444    26.505858    29.972962    9.8211773 
     646    151.44205     1.711671    26.482989    29.947102    9.8127036 
     647    149.68358    1.7106052    26.488488     29.95332    9.8147413 
     648    147.15112    1.7101827    26.490669    29.955786    9.8155493 
     649    145.05622     1.714303    26.469429    29.931768    9.8076793 
     650    143.13637    1.7126324    26.478033    29.941497    9.8108672 
     651    142.48568    1.7172184    26.454441    29.914819    9.8021257 
     652    142.30143    1.7136493    26.472794    29.935573    9.8089262 
     653    143.85366    1.7188229    26.446207    29.905508    9.7990749 
     654    145.45424    1.7136228     26.47293    29.935727    9.8089767 
     655    147.76116       1.7217    26.431467     29.88884    9.7936133 
     656    148.16806    1.7092335    26.495572     29.96133     9.817366 
     657    149.08426    1.7262658    26.408144    29.862466    9.7849714 
     658     146.2566    1.7024878     26.53052     30.00085    9.8303152 
     659    146.30883    1.7286292    26.396103    29.848851      9.78051 
     660    144.68418    1.7039359    26.523002    29.992349    9.8275297 
     661    147.68167    1.7236012    26.421746    29.877847    9.7900112 
     662    151.25436     1.712982    26.476231     29.93946    9.8101997 
     663    156.13149     1.717202    26.454525    29.914914    9.8021569 
     664    159.41954    1.7189033    26.445795    29.905042    9.7989221 
     665    158.83344     1.712282    26.479839    29.943539    9.8115363 
     666    156.59675    1.7231979    26.423806    29.880177    9.7907748 
     667     151.1899    1.7113834    26.484472    29.948779    9.8132533 
     668    148.43985    1.7270041     26.40438     29.85821    9.7835768 
     669    146.38402    1.7080053    26.501921     29.96851    9.8197186 
     670    149.23948    1.7288674    26.394891     29.84748    9.7800607 
     671    150.57997    1.7110751    26.486063    29.950578    9.8138428 
     672    153.76769    1.7266963    26.405949    29.859984    9.7841581 
     673    153.81975    1.7161195    26.460086    29.921203    9.8042175 
     674    152.97457    1.7243615    26.417861    29.873455     9.788572 
     675    150.77713    1.7193144    26.443686    29.902658     9.798141 
     676    150.01919    1.7209206    26.435457    29.893352    9.7950917 
     677    150.87363    1.7229021    26.425319    29.881888    9.7913352 
     678    151.87074     1.719907    26.440649    29.899223    9.7970154 
     679    153.00645    1.7250865     26.41416    29.869269    9.7872005 
     680     152.9244    1.7214509    26.432742    29.890282    9.7940857 
     681    152.49222    1.7246454    26.416412    29.871816     9.788035 
     682    151.26876    1.7237749    26.420858    29.876843    9.7896822 
     683    149.73755    1.7253341    26.412897    29.867841    9.7867324 
     684    147.96174    1.7259369    26.409821    29.864363    9.7855929 
     685    146.51069    1.7256664    26.411201    29.865923    9.7861042 
     686    146.16878    1.7268794    26.405016    29.858929    9.7838124 
     687    146.73194    1.7264745     26.40708    29.861263    9.7845771 
     688    147.84073    1.7277805    26.400425    29.853737    9.7821112 
     689    147.89242    1.7264776    26.407064    29.861245    9.7845713 
     690    146.10738    1.7278281    26.400182    29.853463    9.7820214 
     691    142.63803    1.7266624    26.406122     29.86018    9.7842222 
     692    139.70342    1.7281109    26.398742    29.851834    9.7814877 
     693    138.58436    1.7260892    26.409045    29.863485    9.7853051 
     694    140.04562     1.726123    26.408872     29.86329    9.7852412 
     695    143.32517    1.7265741    26.406572    29.860689     9.784389 
     696    147.04812    1.7257048    26.411005    29.865702    9.7860316 
     697    149.73903    1.7264356    26.407278    29.861487    9.7846505 
     698    150.25772    1.7251165    26.414007    29.869097    9.7871439 
     699    149.74793    1.7278048    26.400301    29.853597    9.7820654 
     700    148.78102    1.7270461    26.404166    29.857968    9.7834976 
     701    148.87227    1.7297458    26.390422    29.842426     9.778405 
     702    150.55845    1.7258184    26.410425    29.865046    9.7858168 
     703    155.01388    1.7313741    26.382147    29.833068    9.7753387 
     704    159.31956    1.7229576    26.425035    29.881567    9.7912301 
     705    163.33475    1.7329777    26.374006    29.823864    9.7723225 
     706    162.66239    1.7186089    26.447304    29.906749    9.7994814 
     707    161.28127      1.73442    26.366694    29.815595     9.769613 
     708    156.37069    1.7190078    26.445258    29.904436    9.7987234 
     709    153.90513    1.7283147    26.397704    29.850661    9.7811032 
     710    153.30066    1.7298615    26.389834    29.841761     9.778187 
     711    154.12506    1.7195651    26.442401    29.901205    9.7976647 
     712    156.02636    1.7307496    26.385319    29.836656    9.7765142 
     713    155.12423    1.7216753    26.431594    29.888983    9.7936602 
     714      153.252    1.7241385       26.419    29.874743     9.788994 
     715    149.77804     1.726917    26.404824    29.858713    9.7837414 
     716    145.53143    1.7207584    26.436288    29.894291    9.7953994 
     717    143.67647    1.7283825    26.397359    29.850271    9.7809753 
     718    143.64757    1.7213895    26.433056    29.890638    9.7942022 
     719     146.6646    1.7257695    26.410675    29.865329    9.7859093 
     720    150.01393    1.7246342    26.416469    29.871881    9.7880561 
     721    151.39057    1.7225956    26.426886     29.88366    9.7919158 
     722    150.23566    1.7280546    26.399029    29.852159     9.781594 
     723    146.13222     1.722721    26.426245    29.882935    9.7916782 
     724    143.16551    1.7308324    26.384899     29.83618    9.7763584 
     725    142.09459    1.7250321    26.414438    29.869584    9.7873036 
     726    144.60746    1.7292475    26.392957    29.845293    9.7793442 
     727    149.14789    1.7302033    26.388096    29.839796     9.777543 
     728    152.33677    1.7277061    26.400803    29.854165    9.7822515 
     729    153.68096    1.7353785    26.361838    29.810104    9.7678139 
     730    150.36559    1.7244662    26.417327     29.87285    9.7883739 
     731    147.60787    1.7437261    26.319704    29.762458     9.752202 
     732    140.92765     1.716391    26.458691    29.919625    9.8037006 
     733    138.65599    1.7511407    26.282505    29.720393    9.7384185 
     734    135.82104    1.7088602    26.497501    29.963512    9.8180809 
     735    139.48799    1.7490021    26.293213    29.732502    9.7423861 
     736     142.1193    1.7205993    26.437102    29.895213    9.7957013 
     737    148.70743    1.7410458    26.333204    29.777724     9.757204 
     738    151.77252    1.7273428    26.402654    29.856259    9.7829374 
     739    153.75952     1.736315    26.357098    29.804744    9.7660575 
     740    150.89467      1.72829     26.39783    29.850803    9.7811498 
     741    147.91532    1.7380082    26.348536    29.795062    9.7628851 
     742    145.77746    1.7263523    26.407703    29.861967    9.7848079 
     743    148.66473     1.735961     26.35889    29.806769    9.7667213 
     744    154.10243    1.7294309    26.392024    29.844238    9.7789985 
     745    161.90998    1.7299813    26.389225    29.841072    9.7779613 
     746     168.0701     1.732492    26.376471     29.82665    9.7732356 
     747    168.57797    1.7252396    26.413379    29.868386    9.7869111 
     748    165.44236    1.7363231    26.357057    29.804697    9.7660423 
     749    157.25332    1.7248025     26.41561    29.870909    9.7877377 
     750    151.13768    1.7381624    26.347757     29.79418    9.7625963 
     751    146.73728    1.7270209    26.404294    29.858113    9.7835451 
     752    147.62667    1.7383904    26.346605    29.792878    9.7621694 
     753    150.31484    1.7287991    26.395238    29.847873    9.7801895 
     754    154.26566    1.7379677    26.348741    29.795293    9.7629609 
     755    154.51298       1.7288    26.395234    29.847868    9.7801879 
     756    151.93141    1.7376212    26.350492    29.797274    9.7636099 
     757    144.73797    1.7287138    26.395673    29.848364    9.7803505 
     758    138.07961    1.7367805    26.354743     29.80208    9.7651849 
     759    133.34455    1.7319601     26.37917    29.829703    9.7742359 
     760    132.81609    1.7315242    26.381384    29.832206    9.7750562 
     761    136.53394    1.7361663    26.357851    29.805595    9.7663364 
     762    142.44959    1.7309291    26.384407    29.835625    9.7761763 
     763    149.53941    1.7365705    26.355805    29.803282    9.7655784 
     764    153.97944    1.7325415    26.376219    29.826366    9.7731425 
     765    155.64578    1.7380831    26.348158    29.794634    9.7627448 
     766     153.2501    1.7329103    26.374348     29.82425    9.7724491 
     767    150.67861    1.7435429    26.320627    29.763501    9.7525438 
     768    147.02641    1.7266853    26.406005    29.860048    9.7841789 
     769    147.63369    1.7519778    26.278318    29.715659    9.7368673 
     770    147.22746    1.7167333    26.456932    29.917637    9.8030489 
     771    150.68109    1.7534664     26.27088    29.707247    9.7341111 
     772    150.61077    1.7233651    26.422952    29.879212    9.7904583 
     773    153.78625    1.7421856     26.32746    29.771228    9.7550756 
     774    155.82284    1.7383157    26.346982    29.793304    9.7623093 
     775    157.69292    1.7297653    26.390323    29.842314    9.7783682 
     776    160.97889     1.745987    26.308339    29.749606    9.7479909 
     777    161.38983    1.7300881    26.388682    29.840458    9.7777601 
     778    162.13387     1.741339    26.331726    29.776052    9.7566563 
     779    161.34941     1.739711    26.339937    29.785337    9.7596987 
     780    159.14917    1.7358702    26.359349    29.807289    9.7668916 
     781    157.04441    1.7461496    26.307522    29.748683    9.7476882 
     782    152.23264    1.7307759    26.385186    29.836505    9.7764648 
     783    149.65349    1.7498466    26.288982    29.727718    9.7408187 
     784     144.9272    1.7300907    26.388668    29.840443    9.7777552 
     785    143.56879     1.746422    26.306154    29.747136    9.7471814 
     786    141.24565     1.735803    26.359689    29.807673    9.7670175 
     787    140.19827    1.7417972    26.329417    29.773441    9.7558007 
     788    138.16749    1.7390363    26.343343    29.789189    9.7609607 
     789    136.44208     1.739091    26.343066    29.788876    9.7608584 
     790    136.19543    1.7412123    26.332364    29.776775     9.756893 
     791    137.36538    1.7378736    26.349216    29.795831    9.7631371 
     792    139.86078    1.7410144    26.333362    29.777903    9.7572627 
     793    142.56474    1.7366722    26.355291      29.8027     9.765388 
     794    145.96288    1.7388998    26.344032    29.789968    9.7612161 
     795    148.88938    1.7359283    26.359055    29.806957    9.7667827 
     796    151.97294    1.7370695    26.353281    29.800427    9.7646432 
     797    154.98997    1.7385572    26.345763    29.791925    9.7618573 
     798    157.16008    1.7364583    26.356373    29.803924    9.7657888 
     799    159.15939    1.7408855    26.334012    29.778638    9.7575034 
     800    159.91869    1.7350143    26.363683    29.812189    9.7684973 
     801    161.26537    1.7447664    26.314473    29.756542    9.7502636 
     802    160.10508    1.7291523    26.393441     29.84584    9.7795237 
     803    159.96601    1.7510116    26.283151    29.721123    9.7386578 
     804    156.74427    1.7162717    26.459304    29.920319    9.8039277 
     805    156.96298    1.7593247    26.241688    29.674237    9.7232948 
     806    151.41721    1.7132171     26.47502     29.93809     9.809751 
     807    148.93015    1.7479244    26.298616    29.738611     9.744388 
     808    144.96923    1.7400292    26.338331    29.783522    9.7591037 
     809    142.75615    1.7269155    26.404832    29.858721    9.7837441 
     810    146.26349    1.7494166    26.291136    29.730153    9.7416167 
     811    150.83407    1.7325657    26.376097    29.826227     9.773097 
     812    155.56894    1.7452075    26.312255    29.754035    9.7494419 
     813    156.79571    1.7415223    26.330802    29.775008     9.756314 
     814    154.39468    1.7412737    26.332055    29.776425    9.7567783 
     815    150.02085    1.7481386    26.297541    29.737397    9.7439901 
     816    144.69404     1.737192    26.352662    29.799727    9.7644138 
     817    143.36709    1.7500118    26.288155    29.726782    9.7405122 
     818    143.65591    1.7395886    26.340554    29.786036    9.7599276 
     819    146.85189    1.7456045    26.310261    29.751779    9.7487028 
     820    149.66476    1.7450477    26.313059    29.754944    9.7497397 
     821    149.63445    1.7385771    26.345662    29.791811      9.76182 
     822    147.18594    1.7476704     26.29989    29.740052    9.7448601 
     823    142.55716    1.7386757    26.345164    29.791248    9.7616355 
     824     140.3358    1.7429834    26.323442    29.766685    9.7535871 
     825    141.75917    1.7461092    26.307725    29.748912    9.7477634 
     826    146.23344      1.74109    26.332981    29.777472    9.7571215 
     827     153.7418    1.7492583    26.291929     29.73105    9.7419105 
     828    159.68641    1.7420102    26.328343    29.772228    9.7554031 
     829    163.17705    1.7499588    26.288421    29.727083    9.7406105 
     830     160.9591    1.7432177    26.322263    29.765352    9.7531502 
     831    156.00205    1.7523406    26.276504    29.713608    9.7361952 
     832    148.55605    1.7430678    26.323017    29.766205    9.7534296 
     833    143.97789    1.7531747    26.272336    29.708895    9.7346509 
     834    142.11835    1.7428507    26.324111    29.767441    9.7538347 
     835    145.05052    1.7491611    26.292416      29.7316    9.7420908 
     836    149.63862    1.7478675    26.298901    29.738934    9.7444938 
     837     153.6179    1.7430091    26.323313    29.766539    9.7535391 
     838    153.85327    1.7493377    26.291531      29.7306     9.741763 
     839    149.28462    1.7370357    26.353452    29.800621    9.7647066 
     840    144.71398     1.747908    26.298697    29.738704    9.7444184 
     841    140.08979    1.7391973     26.34253     29.78827    9.7606596 
     842    139.53046    1.7391045    26.342998    29.788799    9.7608331 
     843    143.32719    1.7457445    26.309557    29.750984    9.7484423 
     844    150.10549    1.7352146    26.362668    29.811042    9.7681214 
     845     158.4388     1.746607    26.305226    29.746086    9.7468373 
     846    162.39127     1.733587    26.370916    29.820369    9.7711775 
     847    164.70444    1.7463778    26.306377    29.747387    9.7472637 
     848    161.45703    1.7353056    26.362208    29.810522    9.7679508 
     849    157.69641    1.7481737    26.297365    29.737198    9.7439249 
     850    153.61123    1.7305093    26.386541    29.838037    9.7769667 
     851     154.2546    1.7510583    26.282917    29.720859    9.7385713 
     852    154.48599    1.7323639    26.377121    29.827385    9.7734765 
     853    157.05686     1.747395    26.301271    29.741614     9.745372 
     854    156.87992    1.7394413    26.341298    29.786877    9.7602032 
     855    153.78498    1.7436031    26.320323    29.763158    9.7524314 
     856    147.99292    1.7424301    26.326228    29.769836    9.7546193 
     857     142.4764    1.7406561    26.335169    29.779946    9.7579321 
     858    138.45843    1.7426916    26.324911    29.768347    9.7541314 
     859    136.40939    1.7408711    26.334085     29.77872    9.7575304 
     860    137.66583    1.7433688    26.321502    29.764492    9.7528683 
     861    141.58473    1.7430725    26.322994    29.766178    9.7534208 
     862    146.24096    1.7425007    26.325873    29.769434    9.7544876 
     863    149.61552    1.7441241    26.317702    29.760195    9.7514602 
     864    150.09428    1.7429573    26.323574    29.766834    9.7536357 
     865    148.40019    1.7466427    26.305046    29.745883    9.7467709 
     866     145.7307    1.7428915    26.323905    29.767209    9.7537585 
     867    145.63697    1.7473775    26.301359    29.741713    9.7454045 
     868    148.60915    1.7429111    26.323806    29.767097    9.7537219 
     869    154.94611    1.7478721    26.298878    29.738908    9.7444852 
     870    161.37133    1.7434375    26.321157    29.764101    9.7527402 
     871    165.56812    1.7463447    26.306543    29.747575    9.7473254 
     872    164.12515    1.7441755    26.317444    29.759902    9.7513644 
     873    158.53743    1.7465093    26.305716    29.746641     9.747019 
     874    151.71469    1.7448228    26.314189    29.756222    9.7501585 
     875    146.83955    1.7445325    26.315648    29.757872    9.7506992 
     876     145.3224    1.7448459    26.314073     29.75609    9.7501154 
     877    147.37906    1.7438245    26.319209    29.761899    9.7520186 
     878    151.90903    1.7444902    26.315861    29.758113    9.7507781 
     879    156.62735    1.7434945     26.32087    29.763777    9.7526339 
     880    159.38986    1.7436101    26.320288    29.763119    9.7524184 
     881    158.41636    1.7425739    26.325504    29.769017     9.754351 
     882    154.82841    1.7434853    26.320916    29.763829    9.7526511 
     883    150.83556    1.7422305    26.327234    29.770973    9.7549918 
     884    148.43282    1.7430571    26.323071    29.766266    9.7534495 
     885    147.92554    1.7418766    26.329017    29.772989    9.7556525 
     886    149.08452    1.7437724    26.319472    29.762195    9.7521158 
     887     150.0809    1.7426518    26.325112    29.768573    9.7542057 
     888    149.78332    1.7455764    26.310402    29.751939    9.7487551 
     889    147.02572    1.7427846    26.324443    29.767817    9.7539579 
     890    143.32312    1.7477093    26.299694    29.739831    9.7447877 
     891    138.67363    1.7435857    26.320411    29.763258    9.7524639 
     892    136.09242    1.7492692    26.291874    29.730988    9.7418902 
     893    136.20401    1.7425994    26.325376    29.768872    9.7543035 
     894    139.95194    1.7480576    26.297948    29.737856    9.7441406 
     895    144.44502    1.7448345     26.31413    29.756155    9.7501367 
     896    148.60832    1.7459352    26.308599    29.749901    9.7480873 
     897     151.6507    1.7471004    26.302749    29.743285    9.7459197 
     898    152.95871    1.7441793    26.317425    29.759881    9.7513575 
     899    152.86685    1.7466074    26.305224    29.746084    9.7468365 
     900    152.22839    1.7422957    26.326905    29.770601    9.7548701 
     901    152.65297    1.7435977    26.320351    29.763189    9.7524415 
     902    152.86248    1.7422263    26.327255    29.770997    9.7549997 
     903    153.32612    1.7399729    26.338615    29.783843    9.7592091 
     904    154.56502    1.7423198    26.326784    29.770464    9.7548251 
     905    155.14151    1.7399915    26.338522    29.783737    9.7591744 
     906     155.3898    1.7426498    26.325122    29.768585    9.7542095 
     907     155.6561    1.7423856    26.326452    29.770089    9.7547024 
     908    155.80095    1.7431927    26.322389    29.765494    9.7531966 
     909    155.38567    1.7454284    26.311145     29.75278    9.7490306 
     910     154.5269    1.7446897    26.314858    29.756979    9.7504065 
     911    153.68346    1.7474492    26.300999    29.741306    9.7452711 
     912    151.31914    1.7463983    26.306273    29.747271    9.7472255 
     913    148.02717    1.7497736    26.289348    29.728131    9.7409541 
     914    144.62144    1.7495492    26.290472    29.729402    9.7413705 
     915    142.26675    1.7517522    26.279446    29.716934    9.7372853 
     916    141.26148     1.750822      26.2841    29.722196    9.7390095 
     917    142.02164    1.7497963    26.289234    29.728002    9.7409119 
     918     144.2528    1.7506621      26.2849    29.723101    9.7393059 
     919    146.16281    1.7491061    26.292692    29.731912    9.7421931 
     920    146.88427    1.7493701    26.291369    29.730417     9.741703 
     921    147.28569    1.7474237    26.301127    29.741451    9.7453186 
     922     148.6295    1.7485689    26.295384    29.734957    9.7431906 
     923     150.2799    1.7449542    26.313528    29.755475    9.7499137 
     924    152.66657    1.7457871    26.309343    29.750742    9.7483629 
     925     154.8434    1.7432033    26.322335    29.765434    9.7531769 
     926    156.03276    1.7432672    26.322014     29.76507    9.7530578 
     927    155.51955     1.741544    26.330693    29.774884    9.7562735 
     928     154.3285    1.7401571    26.337686    29.782792    9.7588648 
     929    152.81873    1.7403318    26.336805    29.781796    9.7585382 
     930    151.38696    1.7402407    26.337264    29.782315    9.7587085 
     931    151.17131    1.7400565    26.338193    29.783366    9.7590527 
     932     152.0893     1.739313    26.341946    29.787609     9.760443 
     933    152.79218    1.7393699    26.341658    29.787284    9.7603366 
     934    152.99096    1.7391593    26.342722    29.788486    9.7607306 
     935    152.76915    1.7382176    26.347478    29.793865     9.762493 
     936     150.9359    1.7382918    26.347103    29.793441     9.762354 
     937     147.1453    1.7388352    26.344359    29.790338    9.7613371 
     938    143.72522    1.7395984    26.340505     29.78598    9.7599093 
     939     143.1925    1.7400169    26.338393    29.783592    9.7591267 
     940    145.56804    1.7394996    26.341004    29.786544    9.7600942 
     941    149.43913    1.7385922    26.345586    29.791725    9.7617918 
     942    153.34858    1.7393555    26.341731    29.787366    9.7603636 
     943    154.81688    1.7382951    26.347086    29.793422    9.7623478 
     944    152.81525    1.7392276    26.342377    29.788097    9.7606029 
     945    148.19705    1.7377541     26.34982    29.796514    9.7633609 
     946    143.73616    1.7411884    26.332485    29.776911    9.7569377 
     947    140.82592    1.7392094    26.342469    29.788201     9.760637 
     948    141.60417    1.7436096    26.320291    29.763121    9.7524192 
     949    145.19344    1.7402727    26.337103    29.782133    9.7586487 
     950    150.17592    1.7450492    26.313051    29.754935    9.7497367 
     951    153.48493    1.7413528    26.331656    29.775974    9.7566305 
     952    155.15321    1.7464029     26.30625    29.747245     9.747217 
     953    152.96894    1.7405758    26.335574    29.780404    9.7580822 
     954     149.4691    1.7495068    26.290684    29.729642    9.7414493 
     955    145.26266    1.7403356    26.336785    29.781774    9.7585311 
     956    145.26265    1.7523483    26.276466    29.713564     9.736181 
     957    148.11085    1.7424446    26.326155    29.769753    9.7545922 
     958    153.63814    1.7516622    26.279896    29.717443     9.737452 
     959    157.00489    1.7440047    26.318303    29.760874    9.7516828 
     960    158.03825    1.7502878    26.286773    29.725219         9.74 
     961    154.59013    1.7440821    26.317914    29.760434    9.7515386 
     962    149.45747    1.7481847     26.29731    29.737135    9.7439043 
     963    144.00771    1.7436866    26.319903    29.762683    9.7522757 
     964    141.73774    1.7442253    26.317194    29.759619    9.7512717 
     965     143.2447    1.7450432    26.313081    29.754969     9.749748 
     966    148.06156    1.7411442    26.332708    29.777163    9.7570201 
     967    153.91928    1.7417703    26.329552    29.773594    9.7558509 
     968    156.72359     1.740142    26.337762    29.782878    9.7588929 
     969    155.44759    1.7388024    26.344524    29.790524    9.7613984 
     970    151.25288    1.7395729    26.340634    29.786126     9.759957 
     971    145.99944    1.7376321    26.350437    29.797211    9.7635893 
     972    142.43781    1.7400984    26.337982    29.783127    9.7589744 
     973    142.08974     1.740625    26.335326    29.780123    9.7579902 
     974    144.94379    1.7416508    26.330154    29.774275     9.756074 
     975    149.36612     1.742747    26.324633    29.768031    9.7540281 
     976    153.23373    1.7420573    26.328106    29.771959    9.7553152 
     977    154.98506    1.7440969    26.317839     29.76035     9.751511 
     978    153.17935    1.7440653    26.317998    29.760529    9.7515699 
     979    149.13137    1.7444169     26.31623     29.75853    9.7509147 
     980    145.46623    1.7443359    26.316637     29.75899    9.7510656 
     981    144.23337    1.7434956    26.320864     29.76377    9.7526318 
     982    146.26098    1.7441303    26.317671    29.760159    9.7514487 
     983    151.34212    1.7436655     26.32001    29.762804    9.7523151 
     984    158.34329    1.7447249    26.314681    29.756778    9.7503408 
     985    163.78063    1.7435074    26.320805    29.763703    9.7526098 
     986    165.20036    1.7436656    26.320009    29.762803    9.7523148 
     987     162.8455    1.7413481     26.33168    29.776001    9.7566394 
     988    158.59521    1.7436511    26.320082    29.762886     9.752342 
     989     153.7721    1.7379851    26.348653    29.795193    9.7629282 
     990    151.25952    1.7457583    26.309488    29.750905    9.7484165 
     991    151.22926      1.73007    26.388773    29.840562    9.7777941 
     992    154.82793     1.752231    26.277052    29.714227    9.7363982 
     993    155.82017     1.718633    26.447181    29.906609    9.7994356 
     994    159.42738    1.7595632    26.240502    29.672896    9.7228554 
     995    155.63118    1.7127929    26.477206    29.940562    9.8105608 
     996    155.84481    1.7620646    26.228079    29.658849    9.7182524 
     997     152.5594    1.7153635    26.463973    29.925598    9.8056576 
     998    152.13779    1.7527706    26.274355    29.711178     9.735399 
     999    149.63068    1.7405876    26.335514    29.780336    9.7580601 
    1000    147.01021    1.7270191    26.404304    29.858124    9.7835485 
    1001     149.0597    1.7532112    26.272154    29.708689    9.7345834 
    1002    152.03718    1.7391258    26.342891    29.788678    9.7607933 
    1003    156.23387    1.7392467     26.34228    29.787988    9.7605671 
    1004     160.2866    1.7525657     26.27538    29.712336    9.7357784 
    1005    157.28559    1.7328991    26.374405    29.824314    9.7724702 
    1006    153.02989    1.7518459    26.278978    29.716404    9.7371116 
    1007    145.75352    1.7416137    26.330341    29.774487    9.7561434 
    1008    140.89508    1.7418111    26.329347    29.773362    9.7557748 
    1009    140.54804    1.7502558    26.286933    29.725401    9.7400595 
    1010    143.03483    1.7362758    26.357297    29.804968    9.7661311 
    1011    148.66081    1.7488807    26.293821    29.733189    9.7426115 
    1012    152.62988    1.7427103    26.324817     29.76824    9.7540965 
    1013    154.14331     1.740096    26.337994     29.78314    9.7589789 
    1014    152.86589    1.7495484    26.290476    29.729406    9.7413719 
    1015    148.39074    1.7377123    26.350032    29.796753    9.7634392 
    1016    145.19223    1.7488113    26.294169    29.733583    9.7427405 
    1017    143.17365    1.7436744    26.319965    29.762753    9.7522986 
    1018    143.56845    1.7411518     26.33267     29.77712     9.757006 
    1019    146.77757    1.7495869    26.290283    29.729189    9.7413006 
    1020    150.32939    1.7420572    26.328107     29.77196    9.7553154 
    1021    154.08125    1.7483681    26.296391    29.736095    9.7435636 
    1022    154.66373    1.7423905    26.326428    29.770061    9.7546932 
    1023    152.16633    1.7453072    26.311754    29.753469    9.7492564 
    1024    147.33795    1.7451257    26.312666      29.7545    9.7495942 
    1025    143.82582    1.7440101    26.318276    29.760843    9.7516727 
    1026    144.52214    1.7454912     26.31083    29.752423    9.7489137 
    1027    149.71902     1.741413    26.331353    29.775631    9.7565182 
    1028    157.30521    1.7433656    26.321519     29.76451    9.7528743 
    1029    162.97609    1.7392519    26.342254    29.787958    9.7605574 
    1030    164.14068     1.740527     26.33582    29.780682    9.7581733 
    1031    159.27142    1.7375604    26.350799    29.797621    9.7637236 
    1032    152.18829    1.7394834    26.341086    29.786637    9.7601244 
    1033    146.75061    1.7380761    26.348193    29.794673    9.7627578 
[...]
    1761    151.69403    1.6671042    26.716907    30.211617     9.899377 
    1762    154.05177    1.6664524     26.72039    30.215556    9.9006676 
    1763    157.46285    1.6655855    26.725025    30.220798    9.9023851 
    1764    160.24753     1.665256    26.726788     30.22279    9.9030381 
    1765    160.99066     1.665643    26.724717    30.220449     9.902271 
    1766     158.9943    1.6645777    26.730418    30.226895    9.9043831 
    1767    154.47774    1.6646238    26.730171    30.226616    9.9042915 
    1768    149.01286    1.6645693    26.730463    30.226946    9.9043997 
    1769    145.16626    1.6636572    26.735346    30.232469    9.9062093 
    1770    143.94761    1.6635159    26.736104    30.233325    9.9064899 
    1771    144.13869    1.6630169    26.738777    30.236348    9.9074805 
    1772    144.35046    1.6635338    26.736008    30.233217    9.9064544 
    1773      144.457    1.6646572    26.729992    30.226414    9.9042254 
    1774    145.08001    1.6651789      26.7272    30.223257    9.9031909 
    1775    145.84534     1.664498    26.730844    30.227378    9.9045411 
    1776    145.94205     1.664762    26.729431    30.225779    9.9040175 
    1777    146.07084    1.6643915    26.731414    30.228022    9.9047523 
    1778    146.90592    1.6632179      26.7377     30.23513    9.9070814 
    1779    147.82898     1.663698    26.735128    30.232222    9.9061284 
    1780    148.05269    1.6640075     26.73347    30.230347    9.9055141 
    1781    147.72893    1.6639686    26.733679    30.230583    9.9055913 
    1782    148.22653    1.6647956    26.729251    30.225576    9.9039509 
    1783    149.83843    1.6636127    26.735585    30.232738    9.9062977 
    1784    151.38513    1.6626571    26.740706    30.238529    9.9081952 
    1785    152.37438    1.6642312    26.732273    30.228993    9.9050704 
    1786    153.16828    1.6635398    26.735975     30.23318    9.9064423 
    1787    153.91063    1.6624991    26.741553    30.239487     9.908509 
    1788    154.12509    1.6620921    26.743736    30.241956    9.9093178 
    1789    154.09724     1.660917    26.750041    30.249086    9.9116542 
    1790    154.37183    1.6614451    26.747207     30.24588    9.9106039 
    1791    155.05471    1.6619986    26.744237    30.242522    9.9095035 
    1792    156.46234    1.6612105    26.748466    30.247304    9.9110703 
    1793    157.45316    1.6606301    26.751582    30.250828     9.912225 
    1794    156.36954    1.6595071    26.757615     30.25765    9.9144604 
    1795      153.996    1.6592501    26.758996    30.259212    9.9149721 
    1796    151.36763      1.66036    26.753032    30.252468    9.9127624 
    1797    148.56561    1.6605556    26.751981     30.25128     9.912373 
    1798    145.88418    1.6602611    26.753563    30.253069    9.9129592 
    1799    144.71265     1.662088    26.743758     30.24198    9.9093259 
    1800    145.44223    1.6619501    26.744497    30.242816    9.9095999 
    1801     146.9917    1.6613697    26.747611    30.246338    9.9107538 
    1802    148.03823    1.6615558    26.746613    30.245208    9.9103837 
    1803    147.01161    1.6617144    26.745762    30.244246    9.9100684 
    1804    144.16287    1.6625979    26.741023    30.238888    9.9083128 
    1805    141.94729    1.6606256    26.751606    30.250855    9.9122339 
    1806    141.88109    1.6606078    26.751701    30.250963    9.9122692 
    1807    142.95941    1.6600321    26.754794     30.25446     9.913415 
    1808    144.87818    1.6602683    26.753524    30.253024    9.9129448 
    1809    147.78279    1.6606631    26.751404    30.250627    9.9121592 
    1810     150.5559    1.6597145      26.7565    30.256389    9.9140473 
    1811    152.19987    1.6609782    26.749713    30.248714    9.9115324 
    1812    152.10272    1.6607745    26.750806    30.249951    9.9119376 
    1813    150.53968    1.6586949    26.761981    30.262588    9.9160783 
    1814    148.99158    1.6593472    26.758474    30.258622    9.9147788 
    1815    148.33671    1.6572689    26.769655    30.271265    9.9189216 
    1816    149.93772    1.6556051    26.778619    30.281402     9.922243 
    1817    153.66728    1.6567529    26.772434    30.274407    9.9199513 
    1818    156.98827    1.6536162    26.789351    30.293537    9.9262195 
    1819     157.7684    1.6535533    26.789691    30.293922    9.9263454 
    1820    155.22109    1.6528318    26.793588    30.298329    9.9277896 
    1821    150.75093    1.6520124    26.798017    30.303337    9.9294306 
    1822    146.34628    1.6537407    26.788679    30.292777    9.9259704 
    1823    144.41308    1.6525407    26.795162    30.300108    9.9283725 
    1824    146.33792    1.6532913    26.791106    30.295521    9.9268696 
    1825    150.40696    1.6550899    26.781398    30.284544    9.9232726 
    1826    153.84444    1.6530052    26.792651    30.297269    9.9274424 
    1827    155.38117    1.6540078    26.787237    30.291146    9.9254361 
    1828    154.06813    1.6563903    26.774387    30.276616    9.9206751 
    1829    149.46902    1.6562851    26.774954    30.277257    9.9208851 
    1830    143.41076    1.6566194    26.773153     30.27522    9.9202176 
    1831    138.43432    1.6560336     26.77631     30.27879    9.9213873 
    1832    136.04697    1.6554259    26.779585    30.282494    9.9226011 
    1833     136.9161    1.6559775    26.776612    30.279132    9.9214993 
    1834    140.87597    1.6556084    26.778602    30.281382    9.9222366 
    1835    145.85998    1.6556233    26.778521    30.281291    9.9222069 
    1836    147.90719    1.6547938    26.782995     30.28635    9.9238644 
    1837    145.95518    1.6527745    26.793898    30.298679    9.9279044 
    1838    142.33369    1.6525826    26.794935    30.299852    9.9282886 
    1839    139.09711    1.6517468    26.799454    30.304962    9.9299629 
    1840    138.69866    1.6506946    26.805147    30.311399    9.9320723 
    1841    142.55924    1.6499808    26.809012     30.31577    9.9335044 
    1842    149.39727    1.6491498    26.813514    30.320861    9.9351725 
    1843    156.45966    1.6482649    26.818312    30.326286    9.9369502 
    1844    161.75953    1.6485569    26.816728    30.324496    9.9363635 
    1845    163.96733    1.6486068    26.816458     30.32419    9.9362633 
    1846     162.0283    1.6487764    26.815538     30.32315    9.9359225 
    1847    156.82397    1.6490451    26.814081    30.321502    9.9353827 
    1848    151.31588    1.6483174    26.818026    30.325964    9.9368446 
    1849    148.32363    1.6478427    26.820602    30.328876    9.9377988 
    1850    149.08698    1.6477549    26.821078    30.329415    9.9379754 
    1851    152.94377    1.6478202    26.820724    30.329014     9.937844 
    1852    157.59447    1.6477372    26.821174    30.329523    9.9380109 
    1853    160.41876    1.6475307    26.822295     30.33079    9.9384261 
    1854    159.45123    1.6458829    26.831243    30.340909    9.9417416 
    1855    154.76284    1.6468152    26.826179    30.335182    9.9398652 
    1856    148.22974     1.648415    26.817498    30.325366    9.9366486 
    1857    142.41632    1.6476819    26.821474    30.329862    9.9381221 
    1858    139.58824    1.6485099    26.816983    30.324784    9.9364579 
    1859    140.33035    1.6474403    26.822785    30.331345    9.9386078 
    1860    144.08779    1.6484285    26.817424    30.325283    9.9366215 
    1861    149.28459    1.6498079    26.809948    30.316828    9.9338513 
    1862     153.5888    1.6486547    26.816197    30.323895    9.9361669 
    1863    154.61935    1.6490739    26.813925    30.321326    9.9353251 
    1864    151.25516    1.6477649    26.821024    30.329353    9.9379552 
    1865     146.6452    1.6483029    26.818105    30.326053    9.9368739 
    1866    144.00605    1.6465481    26.827629    30.336822    9.9404026 
    1867     144.6199    1.6451437    26.835261    30.345452    9.9432304 
    1868    147.56332    1.6455648    26.832971    30.342863    9.9423821 
    1869    151.58236    1.6440355    26.841289    30.352269     9.945464 
    1870    156.15608    1.6445566    26.838453    30.349063    9.9444134 
    1871    159.32263    1.6440187     26.84138    30.352372    9.9454979 
    1872    159.22547    1.6427894    26.848074    30.359942    9.9479781 
    1873    156.63221    1.6448803    26.836693    30.347072    9.9437611 
    1874    152.73692    1.6443329    26.839671    30.350439    9.9448644 
    1875    149.30145    1.6439463    26.841774    30.352818    9.9456439 
    1876    148.27698    1.6442494    26.840125    30.350953    9.9450327 
    1877     149.6861    1.6443015    26.839841    30.350632    9.9449277 
    1878    151.45411     1.646042    26.830378    30.339931    9.9414212 
    1879    151.63315     1.645402    26.833857    30.343865    9.9427102 
    1880    150.33046    1.6459564    26.830843    30.340457    9.9415937 
    1881    147.45069    1.6464666    26.828072    30.337323    9.9405667 
    1882      143.444    1.6472133    26.824017    30.332738    9.9390644 
    1883    140.26119    1.6474384    26.822795    30.331356    9.9386116 
    1884    138.85314    1.6462088    26.829472    30.338907    9.9410856 
    1885    138.12024    1.6461971    26.829535    30.338978     9.941109 
    1886    137.32086    1.6468624    26.825922    30.334892    9.9397702 
    1887    137.14729    1.6464485     26.82817    30.337434    9.9406031 
    1888    138.46805    1.6470076    26.825134    30.334001    9.9394781 
    1889    141.77547     1.646893    26.825756    30.334704    9.9397086 
    1890    146.91911    1.6461907     26.82957    30.339017    9.9411219 
    1891    152.09177    1.6454815    26.833424    30.343376    9.9425499 
    1892    155.50421    1.6429104    26.847415    30.359196    9.9477338 
    1893    156.60566    1.6427832    26.848108     30.35998    9.9479905 
    1894    154.45845    1.6425747    26.849244    30.361264    9.9484114 
    1895     150.3713    1.6399778    26.863408    30.377282    9.9536599 
    1896     147.6563    1.6404782    26.860676    30.374192    9.9526476 
    1897    147.90967     1.638566    26.871121    30.386004    9.9565178 
    1898    150.86907    1.6384819    26.871581    30.386523     9.956688 
    1899    154.96917    1.6396925    26.864966    30.379043    9.9542371 
    1900    158.35093    1.6366904    26.881382    30.397606    9.9603195 
    1901    159.00567    1.6377478    26.875595    30.391063    9.9581755 
    1902    155.64444    1.6374483    26.877234    30.392915    9.9587825 
    1903    150.37646    1.6366003    26.881875    30.398164    9.9605023 
    1904    145.45593    1.6386532    26.870644    30.385464     9.956341 
    1905    141.86579    1.6372079    26.878549    30.394403    9.9592699 
    1906    141.29215    1.6379868    26.874288    30.389585    9.9576912 
    1907    144.48674    1.6393815    26.866664    30.380964    9.9548664 
    1908     149.6747     1.637748    26.875594    30.391062    9.9581751 
    1909    153.46839    1.6390366    26.868549    30.383095    9.9555646 
    1910    152.92008      1.63596    26.885381    30.402129    9.9618015 
    1911    149.08597    1.6384178    26.871931    30.386919    9.9568178 
    1912    143.49452    1.6347255    26.892148     30.40978    9.9643086 
    1913    139.65094     1.634704    26.892266    30.409914    9.9643523 
    1914    139.03768    1.6349326    26.891012    30.408496    9.9638878 
    1915    142.02466    1.6324411    26.904686    30.423959    9.9689544 
    1916    148.04865    1.6347157    26.892201    30.409841    9.9643285 
    1917    154.75461      1.63313    26.900902     30.41968    9.9675524 
    1918    159.57145    1.6315555    26.909553    30.429462    9.9707577 
    1919    160.83406     1.635272    26.889152    30.406393    9.9631986 
    1920    157.80832     1.633577    26.898448    30.416905    9.9666432 
    1921    153.28034    1.6344286    26.893776    30.411622     9.964912 
    1922    150.29823     1.635046    26.890391    30.407793    9.9636576 
    1923    150.76296    1.6337183    26.897673    30.416028    9.9663559 
    1924    154.96487    1.6350929    26.890133    30.407502    9.9635622 
    1925    160.62827    1.6348524    26.891452    30.408993    9.9640508 
    1926    164.08843    1.6336369     26.89812    30.416534    9.9665214 
    1927    162.83002    1.6353895    26.888508    30.405664    9.9629599 
    1928    157.76577    1.6326307    26.903644    30.422781    9.9685684 
    1929    152.83889    1.6337444     26.89753    30.415866    9.9663029 
    1930    149.50296    1.6339508    26.896397    30.414586    9.9658832 
    1931    148.00756    1.6322759    26.905594    30.424985    9.9692908 
    1932    148.48222    1.6348287    26.891582    30.409141     9.964099 
    1933    150.35315        1.633    26.901616    30.420487    9.9678169 
    1934     153.0254    1.6333613    26.899632    30.418244    9.9670819 
    1935    154.45529    1.6342513    26.894749    30.412721    9.9652723 
    1936    153.01045    1.6334772    26.898996    30.417524    9.9668461 
    1937    149.20053    1.6371356    26.878945    30.394851    9.9594167 
    1938    143.82981    1.6330952    26.901094    30.419896    9.9676233 
    1939    140.78555    1.6369505    26.879958    30.395996    9.9597921 
    1940    141.35031    1.6337893    26.897283    30.415588    9.9662115 
    1941    145.89954    1.6340997     26.89558    30.413661    9.9655804 
    1942    151.92333     1.635877    26.885836    30.402643    9.9619701 
    1943    155.98768    1.6307234    26.914129    30.434637    9.9724533 
    1944    156.28066    1.6351354      26.8899    30.407239    9.9634758 
    1945     152.0055     1.630074    26.917703    30.438678    9.9737776 
    1946    147.73762    1.6304704    26.915521    30.436211    9.9729691 
    1947    145.26477    1.6325726    26.903963    30.423141    9.9686866 
    1948    145.42458    1.6287723    26.924872    30.446785    9.9764338 
    1949    148.84328    1.6309927    26.912648    30.432962    9.9719045 
    1950    154.30023    1.6312755    26.911092    30.431203    9.9713281 
    1951    159.75107    1.6287064    26.925235    30.447196    9.9765684 
    1952    162.43258    1.6317488     26.90849    30.428261     9.970364 
    1953    159.67463    1.6285685    26.925995    30.448055    9.9768499 
    1954    153.85105    1.6316493    26.909037    30.428879    9.9705668 
    1955    147.44683    1.6320038    26.907089    30.426676    9.9698447 
    1956    143.82169     1.629396    26.921435    30.442899    9.9751606 
    1957    144.87718    1.6319222    26.907537    30.427183    9.9700108 
    1958    148.56064    1.6291521    26.922779    30.444418    9.9756584 
    1959    152.32592    1.6300409    26.917885    30.438884    9.9738451 
    1960    153.51028     1.630394    26.915942    30.436687     9.973125 
    1961    150.78814     1.627835    26.930038    30.452627    9.9783481 
    1962    144.94591    1.6311324    26.911879    30.432093    9.9716198 
    1963    138.47646    1.6286943    26.925301    30.447271    9.9765931 
    1964    135.32904    1.6291398    26.922847    30.444495    9.9756835 
    1965    136.66471    1.6307483    26.913992    30.434482    9.9724027 
    1966    141.47749      1.62788     26.92979    30.452347    9.9782563 
    1967    147.94986    1.6302919    26.916504    30.437322    9.9733332 
    1968    152.63479    1.6299316    26.918487    30.439565     9.974068 
    1969     153.1109    1.6293289    26.921805    30.443317    9.9752976 
    1970     149.7907    1.6310808    26.912163    30.432414     9.971725 
    1971    144.71872    1.6288601    26.924388    30.446238    9.9762545 
    1972    141.25972    1.6314192    26.910302     30.43031    9.9710355 
    1973     141.2372    1.6287763     26.92485     30.44676    9.9764256 
    1974    145.55906    1.6268216    26.935629     30.45895    9.9804198 
    1975     151.4715    1.6273251    26.932851    30.455808    9.9793903 
    1976    155.42844     1.624114    26.950589    30.475866    9.9859628 
    1977    156.83956    1.6248356    26.946599    30.471354    9.9844844 
    1978    156.08602    1.6255907    26.942426    30.466635    9.9829382 
    1979    153.24257    1.6235197    26.953877    30.479584    9.9871811 
    1980    149.61187    1.6243829    26.949102    30.474184    9.9854118 
    1981    147.70522    1.6240197    26.951111    30.476456    9.9861561 
    1982    149.13352    1.6225998     26.95897    30.485343    9.9890681 
    1983     153.4358    1.6230103    26.956697    30.482773    9.9882259 
    1984    158.92804    1.6217932    26.963439    30.490397     9.990724 
    1985    163.00947    1.6225998     26.95897    30.485343    9.9890681 
    1986    162.48919    1.6227641     26.95806    30.484314     9.988731 
    1987    158.05882    1.6224816    26.959625    30.486084    9.9893108 
    1988      153.108    1.6238096    26.952273    30.477771    9.9865868 
    1989    149.54792    1.6232961    26.955115    30.480984    9.9876397 
    1990    149.15674    1.6238233    26.952197    30.477685    9.9865587 
    1991    152.11135     1.622209    26.961134    30.487791    9.9898702 
    1992    155.94653    1.6208834    26.968483      30.4961    9.9925929 
    1993    157.14546     1.620586    26.970132    30.497966    9.9932041 
    1994    154.64614    1.6199546    26.973636    30.501928    9.9945023 
    1995    150.55108    1.6218196    26.963292    30.490231    9.9906697 
    1996    146.85227    1.6224556    26.959768    30.486246     9.989364 
    1997    144.40916    1.6214101    26.965562    30.492798    9.9915107 
    1998    144.09852    1.6222084    26.961138    30.487795    9.9898716 
    1999    146.12215    1.6218865    26.962922    30.489812    9.9905324 
    2000      149.159    1.6222691    26.960802    30.487415     9.989747 
    2001    150.82225    1.6219136    26.962771    30.489642    9.9904766 
    2002    149.95233    1.6224214    26.959958     30.48646    9.9894342 
    2003    147.18536    1.6231712    26.955806    30.481765    9.9878958 
    2004    144.57038    1.6232025    26.955633     30.48157    9.9878317 
    2005    144.11814    1.6230066    26.956718    30.482796    9.9882336 
    2006    146.07396    1.6225598    26.959191    30.485594    9.9891502 
    2007    149.26271    1.6229973    26.956769    30.482854    9.9882526 
    2008    152.84775    1.6213623    26.965827    30.493097    9.9916088 
    2009    156.01803     1.620234    26.972085    30.500174    9.9939276 
    2010    156.94781    1.6195771    26.975731    30.504297    9.9952786 
Loop time of 130.629 on 24 procs for 2000 steps with 864 atoms

Performance: 0.198 ns/day, 120.953 hours/ns, 15.311 timesteps/s
99.0% CPU use with 24 MPI tasks x no OpenMP threads

MPI task timing breakdown:
Section |  min time  |  avg time  |  max time  |%varavg| %total
---------------------------------------------------------------
Pair    | 128.87     | 128.9      | 129.09     |   0.4 | 98.68
Bond    | 0.0051377  | 0.0075745  | 0.0090008  |   1.2 |  0.01
Neigh   | 0.36142    | 0.36582    | 0.38661    |   0.9 |  0.28
Comm    | 0.28896    | 0.48668    | 0.51943    |   6.3 |  0.37
Output  | 0.082642   | 0.099456   | 0.43166    |  22.0 |  0.08
Modify  | 0.34609    | 0.68103    | 0.70373    |   8.5 |  0.52
Other   |            | 0.08801    |            |       |  0.07

Nlocal:    36 ave 41 max 31 min
Histogram: 1 2 1 3 3 3 5 2 2 2
Nghost:    3263.04 ave 3284 max 3242 min
Histogram: 1 2 1 2 5 6 3 1 2 1
Neighs:    27469 ave 31222 max 23673 min
Histogram: 1 2 2 2 4 2 5 4 0 2

Total # of neighbors = 659257
Ave neighs/atom = 763.029
Ave special neighs/atom = 0
Neighbor list builds = 15
Dangerous builds = 4

Please see the log.cite file for references relevant to this simulation

Total wall time: 0:02:11
