LAMMPS (31 Mar 2017)
Reading data file ...
  triclinic box = (-3.63338 0 0) to (41.1005 18.102 19.5763) with tilt (0 -7.26675 0)
  6 by 2 by 2 MPI processor grid
  reading atoms ...
  1512 atoms
Finding 1-2 1-3 1-4 neighbors ...
  special bond factors lj:   0          0          0         
  special bond factors coul: 0          0          0         
  0 = max # of 1-2 neighbors
  0 = max # of 1-3 neighbors
  0 = max # of 1-4 neighbors
  1 = max # of special neighbors
Reading potential file ffield.reax.weak2017m with DATE: 2012-01-06
WARNING: Resetting reneighboring criteria during minimization (../min.cpp:168)
Neighbor list info ...
  update every 1 steps, delay 0 steps, check yes
  max neighbors/atom: 2000, page size: 100000
  master list distance cutoff = 12
  ghost atom cutoff = 12
  binsize = 6, bins = 9 4 4
  2 neighbor lists, perpetual/occasional/extra = 2 0 0
  (1) pair reax/c, perpetual
      attributes: half, newton off, ghost
      pair build: half/bin/newtoff/ghost
      stencil: half/ghost/bin/3d/newtoff
      bin: standard
  (2) fix qeq/reax, perpetual, copy from (1)
      attributes: half, newton off, ghost
      pair build: copy
      stencil: none
      bin: none
Setting up cg style minimization ...
  Unit style    : real
Per MPI rank memory allocation (min/avg/max) = 75.72 | 75.83 | 75.92 Mbytes
Step Temp E_pair E_mol TotEng Press Volume 
       0          150   -148756.88            0   -148081.28    472759.18    15852.357 
      10          150    -151315.1            0   -150639.49     281245.1      16332.7 
Loop time of 0.691282 on 24 procs for 10 steps with 1512 atoms

99.8% CPU use with 24 MPI tasks x no OpenMP threads

Minimization stats:
  Stopping criterion = max iterations
  Energy initial, next-to-last, final = 
        -148756.884014     -151114.660848     -151315.095007
  Force two-norm initial, final = 326646 197790
  Force max component initial, final = 326541 197646
  Final line search alpha, max atom move = 4.92048e-09 0.000972516
  Iterations, force evaluations = 10 10

MPI task timing breakdown:
Section |  min time  |  avg time  |  max time  |%varavg| %total
---------------------------------------------------------------
Pair    | 0.68737    | 0.68752    | 0.68799    |   0.0 | 99.46
Bond    | 9.5367e-07 | 3.914e-06  | 6.9141e-06 |   0.0 |  0.00
Neigh   | 0          | 0          | 0          |   0.0 |  0.00
Comm    | 0.0013964  | 0.0017482  | 0.0019212  |   0.3 |  0.25
Output  | 4.0054e-05 | 4.4773e-05 | 0.00013614 |   0.0 |  0.01
Modify  | 3.8147e-06 | 6.3876e-06 | 9.2983e-06 |   0.0 |  0.00
Other   |            | 0.00196    |            |       |  0.28

Nlocal:    63 ave 63 max 63 min
Histogram: 24 0 0 0 0 0 0 0 0 0
Nghost:    3440.75 ave 3446 max 3434 min
Histogram: 6 0 0 0 0 6 6 0 0 6
Neighs:    41431.5 ave 41438 max 41424 min
Histogram: 6 6 0 0 0 0 0 0 0 12

Total # of neighbors = 994356
Ave neighs/atom = 657.643
Ave special neighs/atom = 0
Neighbor list builds = 0
Dangerous builds = 0
Setting up Verlet run ...
  Unit style    : real
  Current step  : 10
  Time step     : 0.15
Per MPI rank memory allocation (min/avg/max) = 74.59 | 74.7 | 74.79 Mbytes
Step Temp Density Cella Cellb Cellc 
      10          150    1.6626716    45.181239     18.28302    21.090315 
      11    158.68361    1.5813201    45.943107    18.591317     21.44595 
      12    187.97731    1.5315754    46.435219    18.790455    21.675665 
      13    236.41072    1.5440026    46.310303    18.739906    21.617355 
      14    302.79845    1.5962956    45.798986    18.532997    21.378675 
      15     370.7245    1.5761357    45.993427     18.61168    21.469439 
      16    438.07177    1.5632968    46.118993    18.662491    21.528053 
      17    504.40499    1.5827599    45.929173    18.585679    21.439446 
      18    555.55114      1.58403    45.916893    18.580709    21.433714 
      19    587.21351    1.5634014    46.117965    18.662075    21.527573 
      20    612.75787    1.5776877     45.97834    18.605574    21.462397 
      21    619.39234     1.580296     45.95303    18.595333    21.450582 
      22    610.65103    1.5592167    46.159186    18.678756    21.546814 
      23    603.13648    1.5760935    45.993837    18.611845     21.46963 
      24    581.30156    1.5669335    46.083287    18.648042    21.511385 
      25    559.35197    1.5598272    46.153163    18.676319    21.544003 
      26    538.28446    1.5759064    45.995657    18.612582     21.47048 
      27    503.31782    1.5499823    46.250672    18.715776     21.58952 
      28    488.61703    1.5949691    45.811679    18.538133      21.3846 
      29     470.7653     1.601366    45.750597    18.513416    21.356088 
      30    443.90173     1.579277    45.962912    18.599331    21.455195 
      31    403.26691    1.5552729    46.198169     18.69453    21.565011 
      32    381.85655    1.5921288    45.838905    18.549151    21.397309 
      33    378.25054    1.6154054    45.617672    18.459627    21.294039 
      34     367.0588     1.596281    45.799125    18.533054     21.37874 
      35      353.548    1.5960747    45.801098    18.533852    21.379661 
      36    350.74427    1.6208414    45.566618    18.438967    21.270207 
      37      338.428      1.60099    45.754179    18.514866     21.35776 
      38    333.11406    1.6283723    45.496264    18.410498    21.237367 
      39    316.18088    1.6031622    45.733504    18.506499    21.348109 
      40    316.81879    1.6524104    45.274569    18.320787    21.133881 
      41    279.10084    1.5718697    46.034997    18.628501    21.488844 
      42     265.1409    1.7029182    44.822462    18.137837     20.92284 
      43    247.46277    1.6194756    45.579423    18.444149    21.276185 
      44    226.53536    1.6245383    45.532026    18.424969     21.25406 
      45    223.73643    1.6664555    45.147017    18.269172     21.07434 
      46    197.28992     1.587412    45.884261    18.567505    21.418481 
      47    197.47395     1.714574    44.720662    18.096643     20.87532 
      48    179.27717     1.606758    45.699363    18.492684    21.332172 
      49    179.96436      1.72552    44.625898    18.058296    20.831085 
      50    166.58162    1.6085457    45.682427     18.48583    21.324266 
      51    168.10704    1.7153943    44.713533    18.093758    20.871993 
      52    161.52616    1.5993624    45.769694    18.521144    21.365002 
      53    158.11885     1.674143    45.077807    18.241165    21.042034 
      54    145.88649    1.6433042    45.358044    18.354566    21.172846 
      55    138.07876    1.6644041    45.165557    18.276674    21.082995 
      56    132.99978    1.6473114    45.321234     18.33967    21.155664 
      57    133.97525    1.6624247    45.183476    18.283925    21.091359 
      58    136.65919    1.6492141    45.303799    18.332615    21.147525 
      59    143.90308    1.6604451    45.201425    18.291188    21.099738 
      60    148.60865    1.6497154    45.299209    18.330758    21.145383 
      61    155.71243    1.6741464    45.077777    18.241153    21.042019 
      62    143.03246    1.6070337    45.696749    18.491626    21.330952 
      63    144.64846    1.7763645    44.195997    17.884332     20.63041 
      64    138.80339      1.67265    45.091216    18.246591    21.048293 
      65    131.18106    1.6016417    45.747972    18.512354    21.354862 
      66    142.77225    1.7662361    44.280316    17.918453     20.66977 
      67    135.03897    1.6678136    45.134759    18.264211    21.068618 
      68     129.9363    1.6271566    45.507591    18.415081    21.242654 
      69    140.08498    1.7262938    44.619229    18.055597    20.827972 
      70    141.66457    1.6276933    45.502589    18.413057    21.240319 
      71    152.45362    1.6958143    44.884963    18.163129    20.952015 
      72    157.80677    1.6059617    45.706915     18.49574    21.335697 
      73    187.68017    1.7521205     44.39891    17.966443    20.725129 
      74    176.48929      1.66658    45.145893    18.268717    21.073816 
      75    156.20426     1.633791     45.44591    18.390122    21.213862 
      76    143.19716    1.6618871    45.188348    18.285897    21.093633 
      77    135.66442    1.6829961    44.998627    18.209124    21.005073 
      78    131.51926    1.6650346    45.159856    18.274367    21.080334 
      79    131.94106    1.6644507    45.165136    18.276504    21.082798 
      80    137.38016    1.6761977    45.059381    18.233709    21.033432 
      81    145.20794    1.6695537    45.119073    18.257864    21.061296 
      82    155.17364    1.6695791    45.118844    18.257771    21.061189 
      83    166.01673    1.6744828    45.074758    18.239932     21.04061 
      84    174.83157    1.6679715    45.133335    18.263635    21.067954 
      85    182.25947    1.6759208    45.061862    18.234713    21.034591 
      86    185.19885    1.6684284    45.129214    18.261968     21.06603 
      87     186.2524    1.6783826     45.03982    18.225793    21.024301 
      88    182.19976    1.6699495    45.115508    18.256421    21.059632 
      89    178.25131    1.6839611     44.99003    18.205646     21.00106 
      90    168.96332    1.6697128     45.11764    18.257284    21.060628 
      91    162.50385    1.6978534    44.866987    18.155855    20.943624 
      92    139.31838    1.6383007    45.404172    18.373232    21.194379 
      93    132.38829    1.7779978     44.18246    17.878854    20.624091 
      94    121.42178    1.6735944    45.082732    18.243158    21.044333 
      95    109.41446    1.6719699    45.097329    18.249065    21.051146 
      96    107.10334    1.7205571    44.668764    18.075642    20.851095 
      97    94.005693    1.6408332    45.380801    18.363775    21.183469 
      98    96.757934    1.8018181    43.986896    17.799718    20.532803 
      99    95.089575    1.6952414    44.890018    18.165175    20.954375 
     100    90.248332    1.6461253    45.332117    18.344074    21.160744 
     101    102.45582    1.7922334    44.065169    17.831392    20.569341 
     102    105.59235    1.6777914     45.04511    18.227934    21.026771 
     103     114.4306    1.6722308    45.094983    18.248116    21.050051 
     104    129.89189    1.7232267    44.645685    18.066303    20.840322 
     105    143.02452    1.6482561    45.312574    18.336166    21.151622 
     106    169.84964    1.7733654    44.220898    17.894409    20.642034 
     107    178.85935    1.6518871    45.279349    18.322721    21.136112 
     108    203.93668    1.7366844    44.530065    18.019516    20.786351 
     109    213.36515    1.6307303    45.474324     18.40162    21.227125 
     110    238.64073    1.7406551    44.496179    18.005804    20.770534 
     111    235.43132    1.6349494    45.435173    18.385777     21.20885 
     112    244.11187     1.728404    44.601063    18.048246    20.819492 
     113     221.9758    1.6513601    45.284165     18.32467     21.13836 
     114    208.33273    1.7010828    44.838576    18.144358    20.930362 
     115    184.93195    1.6840051    44.989638    18.205487    21.000877 
     116    169.61714    1.6604676    45.201221    18.291106    21.099642 
     117     161.6249    1.6818413    45.008923    18.213291    21.009879 
     118    153.46099     1.676441    45.057201    18.232827    21.032415 
     119    151.22513    1.6588072    45.216297    18.297207     21.10668 
     120    152.61717    1.6788329    45.035793    18.224164    21.022422 
     121    153.15353    1.6618635    45.188561    18.285983    21.093733 
     122    159.30588     1.662847    45.179651    18.282377    21.089574 
     123    166.55061    1.6693651    45.120772    18.258551    21.062089 
     124    168.01436    1.6512807    45.284891    18.324964    21.138699 
     125    165.12704    1.7069058     44.78753    18.123702    20.906534 
     126      144.941    1.6386914    45.400563    18.371772    21.192694 
     127    136.23648    1.7358189    44.537465    18.022511    20.789805 
     128    118.86178    1.6351246    45.433552    18.385121    21.208093 
     129    117.70952    1.7269195     44.61384    18.053417    20.825457 
     130    111.23882    1.6341157    45.442899    18.388903    21.212456 
     131    120.68752    1.7343937    44.549661    18.027446    20.795498 
     132    120.53365    1.6400791    45.387755    18.366589    21.186715 
     133    130.83542    1.6999145    44.848846    18.148514    20.935156 
     134    130.11951    1.6335242    45.448383    18.391122    21.215016 
     135    141.82472    1.7174081    44.696049    18.086683    20.863831 
     136    135.05435    1.6331928    45.451458    18.392367    21.216451 
     137    133.23223    1.6835203    44.993956    18.207234    21.002892 
     138    140.11249    1.6934801    44.905575     18.17147    20.961637 
     139    139.65416    1.6456459    45.336519    18.345856    21.162799 
     140     145.5125    1.6906123    44.930953    18.181739    20.973483 
     141    155.97446    1.6799979     45.02538     18.21995    21.017561 
     142    166.82434    1.6796725    45.028288    18.221127    21.018918 
     143    178.23761    1.6888031    44.946991    18.188229     20.98097 
     144    183.53972    1.6724966    45.092594    18.247149    21.048936 
     145    190.30429    1.7012224     44.83735    18.143862     20.92979 
     146    174.56987    1.6332779    45.450668    18.392047    21.216083 
     147    175.46826    1.7747783     44.20916    17.889659    20.636555 
     148    164.67139     1.679279    45.031804     18.22255     21.02056 
     149    153.61971    1.6802542    45.023091    18.219024    21.016492 
     150    153.30291    1.7192655    44.679947    18.080168    20.856315 
     151    144.01921    1.6060565    45.706015    18.495376    21.335277 
     152    133.17154    1.6475422    45.319118    18.338814    21.154676 
     153    137.77033    1.7826004    44.144402    17.863454    20.606326 
     154    130.38942    1.6765993    45.055783    18.232253    21.031753 
     155    122.04873    1.7046318    44.807437    18.131757    20.915827 
     156    112.77078     1.676665    45.055194    18.232015    21.031478 
     157    116.13218    1.7353245    44.541695    18.024222     20.79178 
     158    119.17396    1.6376951    45.409768    18.375496    21.196991 
     159    131.60038      1.71804    44.690568    18.084465    20.861273 
     160    132.31991    1.6782121    45.041345     18.22641    21.025013 
     161    142.31447    1.7360244    44.535708      18.0218    20.788985 
     162    148.74543    1.6450242    45.342229    18.348166    21.165464 
     163    160.55661    1.7088898    44.770191    18.116685     20.89844 
     164    169.46611    1.7232103    44.645827     18.06636    20.840388 
     165    174.47068    1.6552102    45.249028    18.310451    21.121958 
     166    184.33397    1.7144712    44.721555    18.097005    20.875738 
     167    183.69716    1.7071185     44.78567    18.122949    20.905666 
     168    182.31292     1.707457     44.78271    18.121752    20.904284 
     169    181.34577    1.7111654    44.750336    18.108651    20.889172 
     170    179.71351    1.7010375    44.838974    18.144519    20.930548 
     171    182.45618     1.724356    44.635937    18.062358    20.835772 
     172      177.066    1.6787614    45.036432    18.224422     21.02272 
     173    176.30303    1.7267101    44.615643    18.054146    20.826299 
     174     172.0852    1.6969466    44.874977    18.159088    20.947354 
     175    172.29678    1.7304425    44.583543    18.041156    20.811314 
     176    165.92282    1.6881684    44.952623    18.190509    20.983599 
     177     167.2931    1.7448298    44.460664    17.991432    20.753955 
     178    158.53015    1.6791488    45.032968    18.223021    21.021103 
     179    159.90351    1.7576242    44.352519    17.947671    20.703474 
     180    149.31773    1.6674989    45.137599     18.26536    21.069944 
     181    152.73226    1.7744258    44.212087    17.890843    20.637921 
     182    144.59896    1.6633961    45.174679    18.280365    21.087253 
     183    148.57529    1.7617665    44.317731    17.933593    20.687235 
     184    140.19562    1.6851258    44.979662     18.20145     20.99622 
     185    140.13006    1.7450015    44.459206    17.990842    20.753275 
     186    135.86699    1.7018821    44.831556    18.141517    20.927085 
     187    138.08088    1.7325278    44.565648    18.033915    20.802961 
     188    138.64692    1.7029159    44.822481    18.137845    20.922849 
     189    144.17897    1.7462607    44.448517    17.986517    20.748285 
     190    140.57372    1.6843833    44.986271    18.204124    20.999305 
     191    144.21508    1.7727324    44.226161    17.896539    20.644491 
     192    134.33036    1.6598399    45.206918    18.293411    21.102302 
     193    139.14895    1.7764263    44.195484    17.884125    20.630171 
     194    133.18777    1.6735059    45.083527     18.24348    21.044704 
     195    139.19332    1.7719732    44.232476    17.899094    20.647439 
     196    132.54805     1.671456     45.10195    18.250935    21.053303 
     197    140.27586    1.7807366    44.159797    17.869684    20.613512 
     198    134.11115    1.6737122    45.081675     18.24273    21.043839 
     199    139.79658    1.7677554    44.267627    17.913318    20.663847 
     200    131.00426    1.6940078    44.900912    18.169583     20.95946 
     201    128.98583    1.7241286    44.637899    18.063152    20.836687 
     202     127.9637    1.7148969    44.717855    18.095507     20.87401 
     203    132.36548    1.7166488    44.702638    18.089349    20.866907 
     204    142.22064    1.7218234    44.657811     18.07121    20.845982 
     205    153.37187    1.7102659     44.75818    18.111825    20.892834 
     206    167.28559    1.7324201    44.566572    18.034289    20.803392 
     207    172.26784    1.6870313    44.962721    18.194595    20.988312 
     208    183.22587    1.7722998    44.229759    17.897994     20.64617 
     209    176.40913    1.6655152    45.155511    18.272609    21.078305 
     210    187.80894    1.7884312    44.096375    17.844019    20.583907 
     211    178.37671     1.685089     44.97999    18.201583    20.996373 
     212    176.75415    1.7412148    44.491412    18.003875    20.768308 
     213    166.31401    1.6910993    44.926639    18.179994    20.971469 
     214    164.73678    1.7526294    44.394613    17.964704    20.723123 
     215    155.17299     1.679116    45.033262     18.22314     21.02124 
     216    156.12338    1.7501158    44.415856    17.973301    20.733039 
     217    147.28492    1.6858679    44.973062    18.198779    20.993139 
     218    146.62938    1.7358515    44.537186    18.022398    20.789675 
     219    142.71251     1.709746    44.762716    18.113661    20.894951 
     220    144.31041    1.7238995    44.639877    18.063953     20.83761 
     221    148.96161     1.724664    44.633279    18.061283    20.834531 
     222    154.65565    1.7142242    44.723703    18.097874     20.87674 
     223    162.17056    1.7342756    44.550672    18.027855     20.79597 
     224    159.58305    1.6924312     44.91485    18.175223    20.965966 
     225    162.71985    1.7680747    44.264962     17.91224    20.662603 
     226    147.75298    1.6499517    45.297047    18.329883    21.144373 
     227    149.83683     1.769117    44.256267    17.908721    20.658544 
     228    138.61491    1.6779932    45.043303    18.227203    21.025927 
     229     140.5564    1.7867191    44.110456    17.849717     20.59048 
     230    132.74334    1.6775257    45.047487    18.228896    21.027881 
     231    136.49957    1.7642343    44.297058    17.925228    20.677585 
     232    134.20495    1.6626071    45.181824    18.283257    21.090588 
     233    143.12044    1.7522508     44.39781    17.965998    20.724615 
     234    138.63428    1.6787042    45.036943    18.224629    21.022959 
     235    143.78421     1.759124    44.339911    17.942569    20.697588 
     236    139.75416    1.6648439     45.16158    18.275065    21.081138 
     237    146.72762    1.7427427    44.478405    17.998612    20.762237 
     238    143.85548    1.6919208    44.919367    18.177051    20.968075 
     239    147.64885    1.7522768     44.39759    17.965909    20.724512 
     240    143.30644    1.6572664    45.230306    18.302876    21.113219 
     241    153.41984    1.7499942    44.416885    17.973717     20.73352 
     242    151.67734    1.6800938    45.024523    18.219604    21.017161 
     243    156.59659    1.7344547    44.549139    18.027235    20.795255 
     244    153.73096     1.692922     44.91051    18.173467     20.96394 
     245    156.75242    1.7266123    44.616486    18.054487    20.826692 
     246    155.74153    1.6978181    44.867298    18.155981    20.943769 
     247    160.21406    1.7191482    44.680964    18.080579     20.85679 
     248    163.30023    1.6998425     44.84948     18.14877    20.935452 
     249    168.87372    1.7206978    44.667547     18.07515    20.850527 
     250     164.6811    1.6784296    45.039399    18.225623    21.024105 
     251     164.3164    1.7584744     44.34537    17.944778    20.700137 
     252    151.65845    1.6568534    45.234064    18.304396    21.114973 
     253    157.65606    1.7727479    44.226032    17.896486     20.64443 
     254    148.87323    1.6843965    44.986153    18.204077     20.99925 
     255    147.83232    1.7116998    44.745679    18.106766    20.886998 
     256    142.86411    1.6924495    44.914689    18.175158    20.965891 
     257    142.78559    1.7161711    44.706785    18.091027    20.868843 
     258    139.77267    1.6698873    45.116068    18.256648    21.059894 
     259     147.2737    1.7596235    44.335715    17.940871     20.69563 
     260    141.36039    1.6666138    45.145588    18.268593    21.073673 
     261    145.32467    1.7329761    44.561806     18.03236    20.801167 
     262    136.54604    1.6815425    45.011589     18.21437    21.011124 
     263    133.39772    1.7059473    44.795917    18.127096    20.910449 
     264    132.30315    1.6929572    44.910198    18.173341    20.963795 
     265    137.02102    1.7097073    44.763054    18.113797    20.895109 
     266    140.18884    1.6814221    45.012664    18.214804    21.011625 
     267    148.02964    1.7364371    44.532179    18.020372    20.787338 
     268    146.38158    1.6679177     45.13382    18.263831     21.06818 
     269    154.47497     1.749367    44.422192    17.975864    20.735997 
     270    150.70186     1.662516    45.182649    18.283591    21.090973 
     271    161.93062    1.7609073    44.324938    17.936509    20.690599 
     272    158.75345      1.66507    45.159536    18.274238    21.080184 
     273    167.65554     1.741625    44.487918    18.002461    20.766677 
     274    161.60568    1.6758551    45.062451    18.234951    21.034866 
     275    161.27397    1.7209088    44.665721    18.074411    20.849674 
     276    159.70612    1.6951396    44.890917    18.165538    20.954794 
     277     163.7355    1.7050463    44.803806    18.130288    20.914132 
     278    170.62188    1.7039436    44.813469    18.134198    20.918642 
     279    177.30467    1.6996226    44.851413    18.149553    20.936354 
     280    183.55177    1.7116948    44.745722    18.106784    20.887018 
     281    181.79166    1.6840689    44.989069    18.205257    21.000611 
     282    183.29111    1.7580858    44.348637      17.9461    20.701662 
     283    163.01538    1.6456349    45.336619    18.345896    21.162846 
     284    163.24704    1.7698762    44.249938     17.90616     20.65559 
     285     150.6459    1.6731397    45.086816    18.244811    21.046239 
     286    152.72439    1.7645921    44.294064    17.924016    20.676187 
     287    147.29867    1.6549055    45.251804    18.311575    21.123254 
     288    161.31955    1.7798404    44.167208    17.872683    20.616972 
     289    149.41947    1.6823426    45.004453    18.211482    21.007792 
     290    141.67926    1.7125989    44.737847    18.103597    20.883342 
     291    135.35606    1.7120513    44.742617    18.105527    20.885569 
     292     133.1024    1.6995325    44.852206    18.149874    20.936725 
     293    137.02579    1.7268973    44.614031    18.053494    20.825546 
     294    134.13317    1.6726311    45.091385     18.24666    21.048372 
     295      139.497    1.7508179    44.409919    17.970898    20.730268 
     296     132.8997    1.6608894    45.197394    18.289557    21.097856 
     297    138.76185    1.7645395    44.294503    17.924194    20.676392 
     298    133.99607    1.6636708    45.172193    18.279359    21.086092 
     299    140.57738    1.7484994    44.429539    17.978837    20.739426 
     300    137.19079    1.6653725    45.156801    18.273131    21.078908 
     301    143.15059    1.7442074    44.465952    17.993572    20.756424 
     302    139.02685    1.6724649    45.092878    18.247264    21.049069 
     303    142.73546    1.7349721     44.54471    18.025442    20.793187 
     304    140.98251    1.6876634    44.957107    18.192323    20.985692 
     305    146.01622    1.7333394    44.558692      18.0311    20.799714 
     306    145.98638    1.6806721    45.019359    18.217514     21.01475 
     307    153.02034    1.7408598    44.494436    18.005099     20.76972 
     308    151.45786    1.6681066    45.132117    18.263142    21.067385 
     309    160.67049    1.7458049    44.452385    17.988082     20.75009 
     310    157.42643    1.6712633    45.103683    18.251636    21.054112 
     311    163.37617    1.7339792     44.55321    18.028882    20.797155 
     312    162.98779    1.6980739    44.865044    18.155069    20.942717 
     313    167.51119     1.723763    44.641055    18.064429     20.83816 
     314    169.29494    1.7070036    44.786675    18.123356    20.906135 
     315    173.32446    1.7220714    44.655667    18.070342    20.844982 
     316    172.48348    1.7028268    44.823264    18.138162    20.923214 
     317    174.66932    1.7361015    44.535048    18.021533    20.788677 
     318    162.00452    1.6640051    45.169167    18.278135     21.08468 
     319    161.23328     1.777286    44.188358    17.881241    20.626844 
     320    148.84896    1.6685106    45.128474    18.261668    21.065685 
     321    149.03192    1.7490353       44.425    17.977001    20.737308 
     322    140.92784    1.6633155    45.175409    18.280661    21.087593 
     323    146.46048    1.7664642     44.27841    17.917682     20.66888 
     324    138.23169    1.6613088    45.193591    18.288018    21.096081 
     325    141.91552    1.7492497    44.423186    17.976266     20.73646 
     326    134.48157    1.6758721    45.062299     18.23489    21.034794 
     327    137.19903     1.739032    44.510019    18.011404    20.776994 
     328    134.78602    1.6804614     45.02124    18.218275    21.015629 
     329    140.88749    1.7390859    44.509559    18.011218    20.776779 
     330    141.73319     1.672417    45.093309    18.247438     21.04927 
     331    151.55504    1.7497542    44.418915    17.974538    20.734467 
     332    150.86743    1.6583955    45.220039    18.298721    21.108427 
     333    166.09492    1.7731245    44.222901    17.895219    20.642969 
     334    163.09665    1.6702588    45.112723    18.255294    21.058332 
     335    169.65127    1.7258177    44.623332    18.057257    20.829887 
     336    164.85509    1.6906551    44.930573    18.181586    20.973306 
     337    164.32555    1.7153632    44.713803    18.093867    20.872119 
     338    161.14776    1.6965187     44.87875    18.160615    20.949115 
     339    161.18409    1.7129847    44.734488    18.102238    20.881774 
     340    159.45473    1.6927131    44.912357    18.174214    20.964803 
     341    160.54391    1.7188539    44.683513     18.08161     20.85798 
     342    154.20461    1.6733684    45.084762     18.24398     21.04528 
     343    154.04842    1.7530493    44.391068     17.96327    20.721468 
     344    142.27428    1.6512679    45.285009    18.325011    21.138754 
     345    145.44398    1.7611657     44.32277    17.935632    20.689587 
     346    135.88129    1.6642109    45.167305    18.277382    21.083811 
     347    137.05623    1.7351691    44.543024     18.02476    20.792401 
     348    130.41863    1.6714649     45.10187    18.250903    21.053266 
     349    133.05606    1.7310071    44.578695    18.039195    20.809051 
     350     130.0333    1.6711099    45.105063    18.252195    21.054756 
     351    134.72976      1.72655    44.617022    18.054704    20.826942 
     352    134.67717    1.6757861     45.06307    18.235202    21.035154 
     353     141.7024      1.72223    44.654296    18.069787    20.844341 
     354    142.84154    1.6721052    45.096112    18.248572    21.050578 
     355    151.43557    1.7318386     44.57156    18.036307    20.805721 
     356    150.00001    1.6613809    45.192937    18.287754    21.095776 
     357     158.2013    1.7431328    44.475088    17.997269    20.760688 
     358    154.44361     1.650663    45.290539    18.327249    21.141336 
     359     163.5628    1.7506717    44.411154    17.971398    20.730844 
     360    158.79882    1.6490462    45.305336    18.333237    21.148243 
     361    167.30701    1.7395558    44.505551    18.009596    20.774908 
     362    160.60576    1.6576631    45.226697    18.301415    21.111535 
     363    164.20835    1.7235655     44.64276    18.065119    20.838956 
     364    158.38425    1.6747791    45.072099    18.238856    21.039369 
     365    158.72589    1.7049037    44.805055    18.130794    20.914715 
     366    156.59359    1.6938182    44.902588    18.170261    20.960242 
     367    156.68667    1.6922687    44.916288    18.175805    20.966637 
     368    157.21057    1.7001697    44.846602    18.147606    20.934109 
     369    154.98843    1.6825899    45.002248     18.21059    21.006763 
     370    154.18683    1.7129425    44.734855    18.102387    20.881946 
     371    143.97173     1.650629     45.29085    18.327375    21.141481 
     372    143.48347    1.7650017    44.290637    17.922629    20.674587 
     373     131.2644    1.6605392    45.200572    18.290843    21.099339 
     374    130.81739    1.7174582    44.695614    18.086507    20.863628 
     375    127.10117    1.6506453    45.290702    18.327315    21.141412 
     376    135.18725    1.7523287    44.397151    17.965731    20.724308 
     377    133.62912    1.6454049    45.338732    18.346751    21.163832 
     378    144.15206    1.7249069    44.631185    18.060435    20.833553 
     379    142.32428    1.6500404    45.296235    18.329554    21.143994 
     380    150.73182    1.7173114    44.696887    18.087022    20.864223 
     381    148.60142    1.6591144    45.213507    18.296077    21.105377 
     382    155.04545    1.7027011    44.824367    18.138608    20.923729 
     383    157.21505     1.689173    44.943711    18.186902    20.979438 
     384    161.70375    1.6893737    44.941931    18.186182    20.978607 
     385    167.60513    1.6983824    44.862328     18.15397    20.941449 
     386    170.57324    1.6805065    45.020837    18.218112     21.01544 
     387    175.78375    1.7056376    44.798628    18.128193    20.911714 
     388    173.22254    1.6620989    45.186428     18.28512    21.092737 
     389    177.36602    1.7228324    44.649091    18.067681    20.841912 
     390    165.92751    1.6312058    45.469905    18.399831    21.225062 
     391    168.28322    1.7284116    44.600998     18.04822    20.819462 
     392      159.223    1.6440663    45.351033    18.351729    21.169574 
     393    162.10314    1.7282653    44.602256    18.048729     20.82005 
     394    154.80503    1.6367328    45.418666    18.379097    21.201144 
     395    160.20217    1.7238097    44.640652    18.064266    20.837972 
     396     151.7105    1.6510792    45.286734    18.325709    21.139559 
     397    150.32512    1.7103511    44.757437    18.111524    20.892487 
     398    141.33629     1.678421    45.039477    18.225655    21.024141 
     399    138.43067    1.7013731    44.836026    18.143326    20.929172 
     400    135.98538    1.6871361     44.96179    18.194218    20.987878 
     401    138.17541    1.6997301    44.850468     18.14917    20.935913 
     402    138.72251    1.6853394    44.977762    18.200681    20.995333 
     403    142.74852    1.7118237    44.744599     18.10633    20.886494 
     404    138.59457    1.6528501    45.270554    18.319162    21.132007 
     405    143.99407     1.739406    44.506828    18.010113    20.775504 
     406    136.47714    1.6314736    45.467417    18.398825    21.223901 
     407    142.04142    1.7293906     44.59258    18.044813    20.815533 
     408     138.8288    1.6578608      45.2249    18.300688    21.110696 
     409    145.05284    1.7299923     44.58741    18.042721    20.813119 
     410    141.39989    1.6426411    45.364146    18.357035    21.175695 
     411    151.48342    1.7432268    44.474288    17.996945    20.760315 
     412    149.37265    1.6443819    45.348132    18.350555     21.16822 
     413    158.88851    1.7319479    44.570622    18.035928    20.805283 
     414    154.45293    1.6614525    45.192288    18.287491    21.095472 
     415    157.39206    1.7163678    44.705077    18.090337    20.868046 
     416    154.75842    1.6821946    45.005773    18.212016    21.008409 
     417    157.21947    1.7112556     44.74955    18.108333    20.888805 
     418    155.75395    1.6777758    45.045249     18.22799    21.026836 
     419    159.58996    1.7195916    44.677123    18.079025    20.854997 
     420    155.76565    1.6658131     45.15282     18.27152    21.077049 
     421    159.52629    1.7255032    44.626043    18.058355    20.831153 
     422    154.56438    1.6654697    45.155923    18.272776    21.078498 
     423    157.57684    1.7257776    44.623677    18.057397    20.830049 
     424    152.45121    1.6653807    45.156728    18.273101    21.078873 
     425    155.85891    1.7342387    44.550989    18.027983    20.796118 
     426     148.5681    1.6566532    45.235885    18.305133    21.115824 
     427    154.57295    1.7514849     44.40428    17.968616    20.727636 
     428    148.41063    1.6493086    45.302933    18.332265    21.147121 
     429    156.60789    1.7505049    44.412565    17.971969    20.731503 
     430    148.30055    1.6589058    45.215401    18.296844    21.106262 
     431    148.78282    1.7236972    44.641623    18.064659    20.838426 
     432    141.84354     1.684511    44.985134    18.203664    20.998775 
     433    140.24135    1.7012989    44.836678     18.14359    20.929476 
     434    142.37198    1.7042506    44.810777    18.133109    20.917386 
     435    144.63501    1.6879321    44.954721    18.191357    20.984578 
     436    149.94697    1.7186523     44.68526    18.082317    20.858795 
     437    147.39957    1.6640262    45.168976    18.278058    21.084591 
     438    153.44848    1.7519973     44.39995    17.966864    20.725614 
     439    146.85361    1.6517756    45.280369    18.323134    21.136588 
     440    154.92677    1.7543149     44.38039    17.958949    20.716484 
     441    149.52147     1.658509    45.219007    18.298303    21.107945 
     442     155.8955    1.7413055    44.490639    18.003562    20.767947 
     443    149.66904    1.6661523    45.149755     18.27028    21.075618 
     444    152.81453    1.7280736    44.603906    18.049396    20.820819 
     445    147.26578     1.673908    45.079917    18.242019    21.043018 
     446    148.45765    1.7202437    44.671477     18.07674    20.852361 
     447    144.40331    1.6784174    45.039509    18.225667    21.024156 
     448    147.16181    1.7203095    44.670907    18.076509    20.852095 
     449    143.48818    1.6755931    45.064799    18.235902    21.035962 
     450    146.80918     1.725719    44.624182    18.057602    20.830284 
     451    143.72309     1.670144    45.113757    18.255713    21.058815 
     452    147.63878    1.7321059    44.569266    18.035379     20.80465 
     453    144.47659    1.6655968    45.154774    18.272311    21.077961 
     454    150.09591    1.7332988    44.559039    18.031241    20.799876 
     455    147.58193    1.6657455    45.153431    18.271767    21.077334 
     456    153.83038    1.7320689    44.569584    18.035508    20.804798 
     457    151.37552    1.6641543    45.167817    18.277589     21.08405 
     458    157.09325    1.7344278    44.549369    18.027328    20.795362 
     459    153.53291    1.6541096    45.259061    18.314511    21.126642 
     460    161.00718    1.7419105    44.485488    18.001478    20.765543 
     461      156.319    1.6469325     45.32471    18.341077    21.157286 
     462    163.00986    1.7349319    44.545054    18.025582    20.793348 
     463     156.0351    1.6647598     45.16234    18.275372    21.081493 
     464    157.95949     1.714743    44.719192    18.096048    20.874635 
     465      154.192    1.7016456    44.833632    18.142358    20.928054 
     466    153.75039    1.6938367    44.902424    18.170195    20.960166 
     467    156.49772    1.7123419    44.740085    18.104503    20.884387 
     468    154.66724    1.6794882    45.029934    18.221793    21.019687 
     469    156.60274    1.7227134    44.650119    18.068097    20.842392 
     470    147.41103    1.6511017    45.286528    18.325626    21.139463 
     471    148.77852    1.7554715    44.370641    17.955004    20.711933 
     472    139.64177    1.6481911     45.31317    18.336407      21.1519 
     473    143.46606    1.7360244    44.535708      18.0218    20.788985 
     474     138.1297    1.6481042    45.313966    18.336729    21.152271 
     475    144.95267    1.7432976    44.473686    17.996702    20.760034 
     476    140.62547     1.645213    45.340495    18.347464    21.164655 
     477     148.2901    1.7323265    44.567375    18.034614    20.803767 
     478    142.01663    1.6625378    45.182452    18.283511    21.090881 
     479    144.76939    1.7120891    44.742287    18.105394    20.885415 
     480    144.66663    1.6948335     44.89362    18.166632    20.956056 
     481    150.58621    1.6951299    44.891003    18.165573    20.954835 
     482    157.42231    1.7040988    44.812109    18.133648    20.918007 
     483     159.8201    1.6801441    45.024074    18.219422    21.016951 
     484     165.1264    1.7261748    44.620255    18.056012    20.828451 
     485    152.75768    1.6395001    45.393098    18.368751    21.189209 
     486    155.60988    1.7514017    44.404984    17.968901    20.727964 
     487    146.30228    1.6540529    45.259578    18.314721    21.126883 
     488    148.63997    1.7319108     44.57094    18.036057    20.805431 
     489    143.35233    1.6550286    45.250682    18.311121    21.122731 
     490    149.56671    1.7388356    44.511695    18.012082    20.777776 
     491    146.02882    1.6518475    45.279712    18.322868    21.136281 
     492    153.51893    1.7270681     44.61256    18.052899    20.824859 
     493    149.90912    1.6699583    45.115429    18.256389    21.059595 
     494    154.10002    1.7112069    44.749974    18.108505    20.889003 
     495    155.41347    1.6817322    45.009897    18.213685    21.010334 
     496    161.58842    1.7061464    44.794174    18.126391    20.909636 
     497    161.55917    1.6754461    45.066117    18.236435    21.036577 
     498    165.02715    1.7168322    44.701046    18.088705    20.866164 
     499    155.78639    1.6633698    45.174917    18.280462    21.087364 
     500    156.01964    1.7324867    44.566001    18.034058    20.803126 
     501     143.7962    1.6533338    45.266139    18.317375    21.129946 
     502    142.56225    1.7404626     44.49782    18.006468    20.771299 
     503    132.89638    1.6494224    45.301891    18.331843    21.146635 
     504    135.29244    1.7391541    44.508977    18.010983    20.776507 
     505    130.41198    1.6566402    45.236004    18.305181    21.115879 
     506    136.97136    1.7349699    44.544729     18.02545    20.793196 
     507      134.385    1.6603764    45.202048    18.291441    21.100029 
     508    140.73808    1.7263523    44.618725    18.055393    20.827737 
     509    138.83489    1.6761434    45.059867    18.233906    21.033659 
     510    141.97528    1.7058772     44.79653    18.127344    20.910735 
     511    143.92325    1.6929627     44.91015    18.173321    20.963772 
     512    148.13071    1.6949245    44.892816    18.166307    20.955681 
     513    155.24507    1.7034127    44.818124    18.136082    20.920815 
     514     160.6302    1.6869596    44.963359    18.194853     20.98861 
     515    169.51849    1.7187725    44.684218    18.081896    20.858309 
     516     166.5859    1.6619562    45.187721    18.285643    21.093341 
     517    172.46176    1.7505801    44.411929    17.971711    20.731206 
     518    164.29438    1.6456979    45.336041    18.345662    21.162576 
     519    168.74573     1.735226    44.542537    18.024563    20.792173 
     520    160.09456    1.6726056    45.091615    18.246753    21.048479 
     521     159.6158    1.7264394    44.617975     18.05509    20.827387 
     522    153.26768    1.6694639    45.119882    18.258191    21.061674 
     523    155.82508    1.7343673    44.549887    18.027538    20.795604 
     524    149.73428    1.6629962      45.1783    18.281831    21.088943 
     525    153.98425       1.7378    44.520534    18.015659    20.781902 
     526    147.89265    1.6638045    45.170982    18.278869    21.085527 
     527    151.62342    1.7316808    44.572913    18.036855    20.806352 
     528    145.68054    1.6739225    45.079787    18.241966    21.042958 
     529     146.2593    1.7134394    44.730531    18.100637    20.879927 
     530    146.69659    1.7117038    44.745644    18.106752    20.886982 
     531    146.42942    1.6881175    44.953075    18.190691     20.98381 
     532    151.21356    1.7170768    44.698923    18.087846    20.865173 
     533    152.65306    1.6924809    44.914411    18.175045    20.965761 
     534    157.91545    1.7216824     44.65903    18.071703    20.846551 
     535    152.63963    1.6750579    45.069599    18.237844    21.038202 
     536    156.46566    1.7633209    44.304705    17.928322    20.681154 
     537    145.17083    1.6492712    45.303276    18.332403    21.147281 
     538    152.42595    1.7639179    44.299706    17.926299    20.678821 
     539    148.41614    1.6669394    45.142648    18.267404    21.072301 
     540    156.96717    1.7534128       44.388    17.962028    20.720036 
     541    154.88775    1.6531719    45.267616    18.317973    21.130635 
     542    167.76818    1.7614774    44.320155    17.934574    20.688367 
     543    158.80061    1.6683091    45.130291    18.262403    21.066533 
     544    158.09962    1.7204986     44.66927    18.075847    20.851331 
     545    156.36502    1.7274857    44.608965    18.051444    20.823181 
     546    151.15413    1.6785128    45.038655    18.225322    21.023758 
     547    152.90927    1.7345511    44.548314    18.026901     20.79487 
     548    147.99215    1.6798049    45.027104    18.220648    21.018366 
     549     150.6027    1.7314039    44.575289    18.037817    20.807461 
     550    146.75146    1.6940728    44.900338    18.169351    20.959192 
     551    150.05342    1.7249195    44.631076    18.060391    20.833502 
     552    152.61131    1.7048525    44.805504    18.130975    20.914924 
     553     158.5766    1.7253533    44.627335    18.058878    20.831756 
     554    156.80371    1.6922843     44.91615    18.175749    20.966573 
     555    158.79508    1.7510291    44.408133    17.970175    20.729434 
     556    144.67268    1.6439903    45.351732    18.352012      21.1699 
     557    144.79302    1.7407913    44.495019    18.005335    20.769992 
     558    135.87491    1.6853917    44.977297    18.200493    20.995116 
     559    137.59833     1.758283    44.346979    17.945429    20.700888 
     560    132.93354    1.6498379    45.298088    18.330304    21.144859 
     561    141.78278    1.7446513     44.46218    17.992046    20.754663 
     562     137.8453    1.6862066     44.97005     18.19756    20.991733 
     563    141.91829    1.7411249    44.492177    18.004185    20.768665 
     564    139.99341    1.6768259    45.053753    18.231432    21.030805 
     565    147.24552    1.7454915    44.455045    17.989159    20.751332 
     566    143.06371    1.6798937    45.026311    18.220327    21.017996 
     567    147.07063    1.7331343    44.560449    18.031812    20.800534 
     568     142.6064    1.6996475    44.851194    18.149464    20.936252 
     569    142.94887    1.7189513    44.682669    18.081269    20.857586 
     570    144.56976    1.7138981     44.72654    18.099022    20.878064 
     571    149.55078    1.7109323    44.752368    18.109473    20.890121 
     572     158.1019    1.7188749    44.683332    18.081537    20.857895 
     573    165.56758    1.7039168    44.813704    18.134293    20.918752 
     574    174.90914    1.7322344    44.568164    18.034933    20.804135 
     575    170.98502    1.6741718    45.077548    18.241061    21.041913 
     576    176.59479    1.7793679    44.171117    17.874265    20.618797 
     577    164.69262    1.6656789    45.154032    18.272011    21.077615 
     578    168.30465    1.7595392    44.336423    17.941157     20.69596 
     579    159.33601    1.6665791    45.145901     18.26872    21.073819 
     580    164.18988    1.7651319    44.289548    17.922189    20.674079 
     581    156.06275    1.6656199    45.154566    18.272226    21.077864 
     582    159.08344    1.7475329    44.437728    17.982151    20.743249 
     583    148.05825    1.6848315    44.982281     18.20251    20.997443 
     584    145.74349    1.7255004    44.626067    18.058364    20.831164 
     585    141.12323    1.7079029    44.778812    18.120174    20.902465 
     586    141.83454    1.7137521     44.72781    18.099536    20.878657 
     587    142.75943    1.7121268    44.741958    18.105261    20.885262 
     588    144.23146    1.7081156    44.776954    18.119422    20.901597 
     589    147.03416    1.7145886    44.720535    18.096592    20.875261 
     590     149.2662    1.7040494    44.812541    18.133823    20.918209 
     591    156.67179    1.7253926    44.626997     18.05874    20.831598 
     592    155.74546    1.6803732    45.022028    18.218594    21.015996 
     593     159.6979    1.7623003    44.313256    17.931782    20.685146 
     594    149.32299    1.6535965    45.263742    18.316405    21.128827 
     595    156.07766    1.7651653    44.289269    17.922076    20.673949 
     596    151.37374    1.6664344    45.147207    18.269249    21.074429 
     597    159.84365    1.7586643    44.343774    17.944132    20.699392 
     598    154.11815    1.6611231    45.195274    18.288699    21.096866 
     599     162.5734    1.7596443    44.335541      17.9408    20.695548 
     600    153.06942     1.669637    45.118323     18.25756    21.060946 
     601    153.07599    1.7330414    44.561245    18.032134    20.800906 
     602    144.98458    1.6978103    44.867366    18.156008    20.943801 
     603    143.52269    1.7173886    44.696217    18.086751     20.86391 
     604    142.12126    1.7086295    44.772464    18.117605    20.899502 
     605    142.62199    1.7106157     44.75513    18.110591     20.89141 
     606    143.08003     1.712659    44.737324    18.103385    20.883098 
     607    143.71023    1.7077725    44.779952    18.120635    20.902997 
     608    147.38312    1.7194633    44.678234    18.079474    20.855515 
     609    146.91671    1.6949476    44.892612    18.166224    20.955586 
     610    152.20112     1.746345    44.447802    17.986228    20.747951 
     611    142.77543    1.6504564    45.292429    18.328014    21.142218 
     612    147.37804    1.7580528    44.348915    17.946212    20.701791 
     613    142.06768    1.6678606    45.134335     18.26404    21.068421 
     614    148.82728    1.7576853    44.352005    17.947463    20.703234 
     615    146.36896     1.660856    45.197697     18.28968    21.097998 
     616    157.30368    1.7520159    44.399794    17.966801    20.725541 
     617    156.44092    1.6749682    45.070403    18.238169    21.038578 
     618    165.62155    1.7427249    44.478557    17.998673    20.762308 
     619    160.70667    1.6811292    45.015278    18.215862    21.012845 
     620    164.21327    1.7264765    44.617655     18.05496    20.827238 
     621    160.17941    1.7016463    44.833626    18.142355    20.928052 
     622    159.74098    1.7161745    44.706755    18.091016    20.868829 
     623    157.80299    1.7083837    44.774612    18.118474    20.900504 
     624     158.3954    1.7167531    44.701733    18.088983    20.866484 
     625    156.95687    1.7058408    44.796849    18.127473    20.910884 
     626     158.8484    1.7350654    44.543911    18.025119    20.792814 
     627    146.01151      1.66277    45.180349     18.28266    21.089899 
     628    145.02342    1.7747846    44.209108    17.889638     20.63653 
     629    135.78777    1.6700519    45.114586    18.256048    21.059202 
     630    138.61726    1.7526209    44.394684    17.964733    20.723156 
     631    134.09991      1.66548     45.15583    18.272738    21.078454 
     632    145.36325     1.771273    44.238304    17.901452    20.650159 
     633    143.45309    1.6733008    45.085368    18.244225    21.045563 
     634    151.20986    1.7426115    44.479522    17.999063    20.762758 
     635    146.64299    1.6879922    44.954188    18.191142    20.984329 
     636    151.79713    1.7251682    44.628931    18.059523    20.832501 
     637    156.53202     1.708502    44.773578    18.118056    20.900021 
     638    164.22805    1.7175539    44.694784    18.086171    20.863241 
     639    166.94283    1.7086974    44.771871    18.117365    20.899225 
     640    167.27515    1.7226015    44.651086    18.068488    20.842843 
     641    160.61683    1.6935971    44.904542    18.171052    20.961154 
     642    161.15343    1.7399945     44.50181    18.008083    20.773162 
     643    148.55199    1.6711922    45.104323    18.251895    21.054411 
     644    148.94568    1.7678514    44.266826    17.912994    20.663473 
     645    140.47217    1.6635159    45.173594    18.279927    21.086747 
     646    146.32621     1.755219    44.372769    17.955865    20.712926 
     647    141.39301    1.6759415    45.061677    18.234638    21.034504 
     648    146.78982    1.7425845    44.479751    17.999156    20.762865 
     649    143.38245     1.684445    44.985721    18.203902    20.999049 
     650    148.79655    1.7327175    44.564022    18.033257    20.802202 
     651    148.38762    1.6977975    44.867479    18.156054    20.943854 
     652    154.51593    1.7237665    44.641024    18.064417    20.838146 
     653    156.33915    1.7073561    44.783593    18.122109    20.904696 
     654    158.83463     1.724559    44.634186     18.06165    20.834954 
     655    154.39474    1.7000247    44.847877    18.148122    20.934704 
     656    155.51517    1.7422763    44.482374    18.000218    20.764089 
     657    142.38796    1.6631251    45.177133    18.281358    21.088398 
     658    142.55283     1.775188    44.205759    17.888283    20.634967 
     659    133.12244    1.6702598    45.112714    18.255291    21.058328 
     660     134.9628    1.7524451    44.396168    17.965334    20.723849 
     661    130.96306    1.6737361     45.08146    18.242644    21.043739 
     662    139.04203    1.7607196    44.326513    17.937147    20.691334 
     663    139.24588    1.6655555    45.155147    18.272462    21.078136 
     664    151.85809    1.7539789    44.383224    17.960096    20.717807 
     665    150.83509    1.6801423     45.02409    18.219428    21.016959 
     666    160.01657    1.7338188    44.554584    18.029438    20.797797 
     667    162.57586    1.7089619    44.769561    18.116431    20.898146 
     668    169.17345    1.7175449    44.694862    18.086203    20.863277 
     669    171.83821    1.7207117    44.667426    18.075101    20.850471 
     670    166.88496    1.7082346    44.775914    18.119001    20.901112 
     671    164.18297    1.7352222     44.54257    18.024576    20.792188 
     672    149.45934     1.682348    45.004405    18.211462     21.00777 
     673    145.34176    1.7619662    44.316056    17.932916    20.686453 
     674    134.96024    1.6546105    45.254493    18.312663     21.12451 
     675     134.7403    1.7296402    44.590435    18.043946    20.814532 
     676    132.40759    1.7418385      44.4861    18.001725    20.765829 
     677    131.47037    1.6733251    45.085151    18.244137    21.045462 
     678    140.96974    1.7496895    44.419463     17.97476    20.734723 
     679    144.74076    1.6766991    45.054889    18.231891    21.031336 
     680    158.72606     1.747456     44.43838    17.982415    20.743553 
     681    162.03614     1.676056    45.060651    18.234223    21.034025 
     682    175.17104    1.7489365    44.425837    17.977339    20.737698 
     683    171.82218    1.6711969    45.104281    18.251878    21.054391 
     684    180.65968    1.7498915    44.417754    17.974069    20.733925 
     685    171.79593    1.6726605    45.091121    18.246553    21.048249 
     686    175.12609    1.7372545    44.525194    18.017545    20.784077 
     687    165.05897     1.695472    44.887983    18.164351    20.953425 
     688     161.4544    1.7130757    44.733696    18.101917    20.881405 
     689    160.01616    1.7286657    44.598812    18.047335    20.818442 
     690    154.83121    1.6902228    44.934404    18.183136    20.975094 
     691    155.54785    1.7291841    44.594355    18.045532    20.816361 
     692    152.22403    1.6983984    44.862187    18.153913    20.941384 
     693    154.36053    1.7256057    44.625159    18.057997     20.83074 
     694    153.06149    1.6989418    44.857403    18.151977    20.939151 
     695    156.99362     1.733578    44.556648    18.030273     20.79876 
     696    149.56031    1.6714094    45.102369    18.251104    21.053499 
     697    153.60972    1.7833809    44.137961    17.860847    20.603319 
     698    145.70394    1.6774363    45.048288     18.22922    21.028254 
     699    150.03244    1.7472699    44.439957    17.983053    20.744289 
     700    145.86728    1.6601522    45.204084    18.292264    21.100979 
     701    159.08681     1.784325    44.130175    17.857697    20.599685 
     702    150.60554    1.6853827    44.977377    18.200525    20.995153 
     703    150.05805    1.7128495    44.735665    18.102714    20.882324 
     704    147.60029    1.7267795    44.615045    18.053904    20.826019 
     705    143.45705    1.6827971    45.000401    18.209842    21.005901 
     706    147.12216    1.7413901    44.489918     18.00327    20.767611 
     707    141.07075    1.6687787    45.126056     18.26069    21.064556 
     708    147.96809    1.7660896     44.28154    17.918948    20.670341 
     709    142.28828    1.6688765    45.125175    18.260333    21.064145 
     710     148.2298    1.7435747    44.471329    17.995748    20.758934 
     711    144.77044     1.676961    45.052543    18.230942    21.030241 
     712    150.26324     1.732172      44.5687     18.03515    20.804385 
     713     149.5325    1.6884236    44.950359    18.189592    20.982542 
     714    157.86328    1.7126299    44.737577    18.103488    20.883216 
     715    165.20101    1.7052788     44.80177    18.129464    20.913181 
     716    172.24839    1.6981585      44.8643    18.154767     20.94237 
     717    176.82403     1.717139    44.698383    18.087628    20.864921 
     718    167.17946    1.6800874    45.024581    18.219627    21.017188 
     719    163.75288    1.7574596    44.353903    17.948231     20.70412 
     720    147.17558    1.6523397    45.275215    18.321048    21.134182 
     721     150.5917    1.7871592    44.106834    17.848252    20.588789 
     722    136.23668     1.695952    44.883748    18.162637    20.951448 
     723    129.29656    1.6933622    44.906618    18.171892    20.962124 
     724    127.02598    1.7337447    44.555219    18.029695    20.798093 
     725    122.67098     1.668191    45.131356    18.262834     21.06703 
     726    133.12062    1.7629164    44.308093    17.929693    20.682736 
     727    132.40369    1.6692937    45.121415    18.258812     21.06239 
     728    142.18718    1.7335105    44.557225    18.030507    20.799029 
     729    137.62164    1.6848384     44.98222    18.202485    20.997414 
     730       139.82    1.6990774     44.85621    18.151494    20.938594 
     731    145.64048    1.7085664    44.773016    18.117829    20.899759 
     732    151.95883    1.6887712    44.947274    18.188344    20.981102 
     733    163.62681    1.7096219      44.7638    18.114099    20.895457 
     734    173.12646    1.6895752    44.940144    18.185459    20.977773 
     735    187.05098    1.7181591    44.689536    18.084048    20.860791 
     736    186.52384    1.6715023    45.101534    18.250766    21.053109 
     737    191.07514    1.7695777    44.252426    17.907167    20.656751 
     738    177.34185    1.6652625    45.157795    18.273533    21.079372 
     739    182.27803    1.7658513    44.283532    17.919754    20.671271 
     740    172.55972     1.662187    45.185629    18.284797    21.092364 
     741    181.94084     1.777006    44.190678     17.88218    20.627928 
     742    169.57027    1.6751175    45.069064    18.237627    21.037953 
     743    165.98398    1.7166405     44.70271    18.089379    20.866941 
     744    154.63089    1.6782754    45.040779    18.226181    21.024749 
     745    153.05733    1.7296961    44.589954    18.043751    20.814307 
     746    142.76459    1.6657452    45.153433    18.271768    21.077335 
     747    145.37599    1.7532874    44.389058    17.962456     20.72053 
     748    136.27685    1.6630182      45.1781     18.28175     21.08885 
     749    139.50733    1.7392934    44.507789    18.010502    20.775953 
     750    131.00958    1.6766245    45.055557    18.232162    21.031647 
     751    129.03266    1.7033058    44.819061    18.136461    20.921253 
     752    128.81718    1.7025605    44.825601    18.139107    20.924305 
     753    132.99133    1.6879621    44.954455     18.19125    20.984454 
     754    143.92327    1.7089962    44.769262     18.11631    20.898007 
     755    153.46899    1.6853085    44.978037    18.200792    20.995461 
     756    166.20194    1.7184504     44.68701    18.083026    20.859612 
     757    166.33656    1.6648854    45.161205    18.274913    21.080963 
     758    174.23198     1.767758    44.267606     17.91331    20.663837 
     759    164.70143    1.6617772    45.189344      18.2863    21.094098 
     760    171.16638    1.7466815    44.444947    17.985072    20.746619 
     761    164.57302    1.6544213    45.256219    18.313361    21.125315 
     762    175.49439    1.7701223    44.247888     17.90533    20.654633 
     763    161.46423    1.6689632    45.124394    18.260017     21.06378 
     764    154.33362    1.7034311    44.817963    18.136017     20.92074 
     765    145.20029    1.7078035    44.779681    18.120526     20.90287 
     766    137.46493    1.6839952    44.989726    18.205522    21.000918 
     767    135.62665    1.7094964    44.764895    18.114542    20.895968 
     768    133.51693    1.6928207    44.911406    18.173829    20.964358 
     769    137.01149    1.7018148    44.832146    18.141756    20.927361 
     770    144.15427    1.7011045    44.838386    18.144281    20.930273 
     771    153.05655    1.6990123    44.856783    18.151726    20.938861 
     772    163.70196    1.7078205    44.779533    18.120466    20.902801 
     773    166.72097    1.6885915    44.948869    18.188989    20.981846 
     774    171.98744    1.7455673    44.454402    17.988898    20.751032 
     775    159.79672    1.6344748    45.439571    18.387557    21.210903 
     776    165.51582    1.7458102    44.452339    17.988064    20.750069 
     777    155.88557    1.6598091    45.207198    18.293525    21.102432 
     778    161.07608     1.756736    44.359993    17.950695    20.706963 
     779    154.39384    1.6513469    45.284286    18.324719    21.138417 
     780    162.01957    1.7474631    44.438319    17.982391    20.743525 
     781    154.86451    1.6621305    45.186142    18.285004    21.092604 
     782     160.5772    1.7424252    44.481107    17.999705    20.763498 
     783    151.85807    1.6680128    45.132963    18.263484     21.06778 
     784    155.19974    1.7293732    44.592729    18.044874    20.815602 
     785     149.3335    1.6802014    45.023562    18.219214    21.016712 
     786    152.71395    1.7167462    44.701792    18.089007    20.866512 
     787    152.61377    1.6878794    44.955189    18.191547    20.984796 
     788    156.63901    1.7142574    44.723415    18.097757    20.876606 
     789    152.89324    1.6840302    44.989414    18.205396    21.000772 
     790    156.27288    1.7199458    44.674055    18.077783    20.853565 
     791    151.47363    1.6797788    45.027338    18.220742    21.018475 
     792    153.57322    1.7333703    44.558427    18.030993     20.79959 
     793      143.451    1.6574646    45.228503    18.302146    21.112377 
     794    147.84351    1.7766483    44.193644     17.88338    20.629312 
     795    141.63943    1.6771043     45.05126    18.230423    21.029642 
     796    146.75063     1.720386    44.670245    18.076241    20.851786 
     797    147.42903    1.6727181    45.090603    18.246343    21.048007 
     798    159.15108    1.7609683    44.324426    17.936302     20.69036 
     799    157.44387    1.6508902    45.288462    18.326409    21.140366 
     800    175.03401    1.7775621     44.18607    17.880315    20.625776 
     801    163.19348    1.6753565    45.066921     18.23676    21.036952 
     802    158.45989    1.7015792    44.834216    18.142594    20.928327 
     803    151.31125    1.7056094    44.798875    18.128293     20.91183 
     804    143.31242    1.6879818     44.95428    18.191179    20.984372 
     805    140.30069    1.7131313    44.733212    18.101722    20.881179 
     806    134.64116    1.6839563    44.990073    18.205663     21.00108 
     807     134.6679    1.7217133    44.658763    18.071595    20.846426 
     808    129.71456    1.6690363    45.123735    18.259751    21.063473 
     809    133.40766    1.7462407    44.448687    17.986586    20.748364 
     810    129.33053    1.6514481    45.283362    18.324345    21.137985 
     811    139.23303    1.7508985    44.409236    17.970622    20.729949 
     812    139.88777    1.6593536    45.211334    18.295198    21.104363 
     813    152.34235    1.7363942    44.532546     18.02052    20.787509 
     814    151.34234    1.6637847    45.171161    18.278942    21.085611 
     815    160.95795    1.7227265    44.650006    18.068052    20.842339 
     816     158.3751    1.6729955    45.088111    18.245335    21.046844 
     817    164.06299    1.7048237    44.805756    18.131077    20.915042 
     818    165.78807    1.6934538    44.905808    18.171564    20.961746 
     819    167.43651    1.6929147    44.910574    18.173493     20.96397 
     820     169.6785    1.7044365    44.809149     18.13245    20.916626 
     821    166.73309    1.6862667    44.969516    18.197344    20.991484 
     822     167.3403    1.7177047    44.693476    18.085642     20.86263 
     823    156.85918    1.6630831    45.177513    18.281512    21.088576 
     824    156.78122    1.7480515    44.433333    17.980373    20.741197 
     825    145.88733    1.6431457    45.359501    18.355156    21.173527 
     826    149.13877    1.7396575    44.504684    18.009245    20.774503 
     827    142.76713    1.6619773     45.18753    18.285566    21.093252 
     828    147.23557    1.7342244    44.551111    18.028033    20.796175 
     829    141.80379    1.6625919    45.181961    18.283312    21.090652 
     830    146.89568    1.7282346     44.60252    18.048836    20.820173 
     831    142.55309    1.6725705     45.09193     18.24688    21.048626 
     832    148.43039    1.7123983    44.739594    18.104304    20.884158 
     833    152.05637    1.6912774    44.925062    18.179355    20.970733 
     834    159.08573    1.7037737    44.814959    18.134801    20.919338 
     835    160.82923    1.6918945    44.919599    18.177145    20.968183 
     836    164.32723    1.7078552    44.779229    18.120343    20.902659 
     837    160.44204    1.6832696     44.99619    18.208138    21.003935 
     838    160.85389    1.7336403    44.556114    18.030057     20.79851 
     839    151.46132    1.6253657      45.5243    18.421843    21.250454 
     840    155.80146    1.7175114    44.695153     18.08632    20.863413 
     841    148.92324      1.69436    44.897801    18.168324    20.958008 
     842    148.10927    1.7196667    44.676472    18.078761    20.854693 
     843    142.80655    1.6532697    45.266723    18.317612    21.130219 
     844    148.65179    1.7535502    44.386841    17.961559    20.719495 
     845    144.63709    1.6399122    45.389294    18.367212    21.187434 
     846     152.7535     1.721645    44.659354    18.071834    20.846702 
     847    147.14814    1.6715498    45.101106    18.250594     21.05291 
     848    150.99403    1.7325232    44.565687    18.033931    20.802979 
     849    148.83565    1.6390839    45.396939    18.370305    21.191003 
     850    161.01617     1.726201    44.620028    18.055921    20.828345 
     851    151.95818    1.6677447    45.135381    18.264463    21.068909 
     852    151.38997    1.6983156    44.862916    18.154208    20.941724 
     853    149.88582     1.712314    44.740328    18.104601    20.884501 
     854    144.99127    1.6653931    45.156615    18.273056    21.078821 
     855    147.73447    1.7067517    44.788879    18.124248    20.907164 
     856    149.35658    1.6948423    44.893542    18.166601     20.95602 
     857    153.75167    1.6934167    44.906136    18.171697    20.961899 
     858    159.73021    1.7028876     44.82273    18.137946    20.922965 
     859    161.22605    1.6851164    44.979746    18.201484    20.996259 
     860    165.14793    1.7191132    44.681267    18.080701    20.856931 
     861    153.44934    1.6424407     45.36599    18.357781    21.176556 
     862    155.83747    1.7539629    44.383359     17.96015     20.71787 
     863     147.2958       1.6552     45.24912    18.310489    21.122002 
     864    151.70854    1.7317473    44.572342    18.036624    20.806086 
     865    145.43604    1.6432853    45.358218    18.354636    21.172927 
     866    155.66278    1.7516659    44.402751    17.967997    20.726922 
     867     147.7404    1.6560315    45.241546    18.307424    21.118466 
     868     149.9296    1.7124475    44.739165    18.104131    20.883958 
     869     146.9661    1.6869829    44.963151    18.194769    20.988513 
     870    151.72949    1.7039589    44.813334    18.134144    20.918579 
     871    154.85291    1.6852624    44.978447    18.200958    20.995653 
     872    158.65628    1.7110969    44.750934    18.108893    20.889451 
     873    152.26737    1.6622366    45.185181    18.284615    21.092155 
     874    157.70093    1.7354617    44.540521    18.023747    20.791232 
     875    149.53308     1.646217    45.331276    18.343734    21.160351 
     876    155.18417    1.7376782    44.521575    18.016081    20.782388 
     877     149.2593    1.6557857    45.243784    18.308329    21.119511 
     878     153.5286    1.7185141    44.686458    18.082802    20.859355 
     879    151.74803    1.6779152    45.044001    18.227485    21.026253 
     880    158.29464    1.6997556    44.850243    18.149079    20.935808 
     881    163.07802    1.6980793    44.864997     18.15505    20.942695 
     882    167.21707    1.6839299    44.990307    18.205758    21.001189 
     883    170.38162    1.7018072    44.832213    18.141783    20.927392 
     884    164.94053    1.6803925    45.021855    18.218524    21.015916 
     885    163.15304    1.7038221    44.814534    18.134629     20.91914 
     886    157.26508    1.6806009    45.019995    18.217771    21.015047 
     887    156.62965    1.7138752    44.726739    18.099102    20.878157 
     888    144.16175    1.6569191    45.233465    18.304154    21.114694 
     889    144.89597    1.7656056    44.285586    17.920586     20.67223 
     890    134.70901    1.6578385    45.225103     18.30077     21.11079 
     891    138.73856    1.7402397     44.49972    18.007237    20.772186 
     892    134.55785    1.6486812     45.30868     18.33459    21.149803 
     893     147.8216    1.7634045    44.304004    17.928039    20.680827 
     894    143.44248     1.661898    45.188249    18.285857    21.093587 
     895    147.82561    1.7115612    44.746887    18.107255    20.887562 
     896    145.31185    1.6839702    44.989949    18.205613    21.001022 
     897    150.20565    1.7019122    44.831292     18.14141    20.926962 
     898    155.46654    1.6882343    44.952039    18.190272    20.983326 
     899    163.60895    1.7039127     44.81374    18.134308    20.918769 
     900    165.98666    1.6786842    45.037122    18.224702    21.023042 
     901    172.63094    1.7219152    44.657017    18.070889    20.845612 
     902    165.39079     1.651916    45.279085    18.322614    21.135989 
     903    168.51058    1.7512885     44.40594    17.969288     20.72841 
     904    158.06128    1.6524183    45.274497    18.320758    21.133847 
     905     161.3901    1.7313233    44.575981    18.038097    20.807784 
     906     155.9967    1.6562498    45.239558    18.306619    21.117538 
     907     162.0002    1.7338805    44.554056    18.029225     20.79755 
     908    157.09956    1.6529226    45.269892    18.318894    21.131698 
     909    163.82184    1.7269099    44.613922     18.05345    20.825495 
     910    155.04947    1.6658822    45.152196    18.271267    21.076758 
     911    155.52774    1.6988702    44.858034    18.152232    20.939445 
     912    153.79348    1.6972833     44.87201    18.157887    20.945969 
     913     148.0596    1.6797245    45.027822    18.220938    21.018701 
     914    145.91465    1.7073368    44.783761    18.122177    20.904775 
     915    138.97586    1.6783635     45.03999    18.225862    21.024381 
     916    138.49956    1.7120204    44.742886    18.105636    20.885695 
     917    135.41088    1.6738935    45.080047    18.242071    21.043079 
     918    141.14379    1.7224325    44.652547     18.06908    20.843525 
     919    137.70535    1.6568477    45.234116    18.304417    21.114997 
     920    144.47796    1.7442457    44.465626     17.99344    20.756271 
     921    141.62087    1.6386326    45.401107    18.371992    21.192948 
     922     154.5882    1.7440746     44.46708    17.994029     20.75695 
     923    154.85784    1.6532442    45.266957    18.317706    21.130327 
     924    166.66866    1.7268955    44.614046      18.0535    20.825553 
     925    161.58318    1.6640792    45.168497    18.277864    21.084367 
     926    166.52733    1.7024836    44.826275     18.13938     20.92462 
     927    166.17158    1.7045192    44.808424    18.132157    20.916287 
     928    166.39854    1.6742493    45.076853    18.240779    21.041588 
     929    171.91315    1.7039452    44.813454    18.134192    20.918636 
     930    171.84045    1.6862706    44.969481     18.19733    20.991468 
     931    172.97443    1.6980563      44.8652    18.155132     20.94279 
     932    171.50789    1.6920648    44.918092    18.176535     20.96748 
     933     171.4062    1.7046326     44.80743    18.131755    20.915823 
     934     162.4227    1.6792466    45.032094    18.222667    21.020695 
     935    160.68497    1.7427815    44.478075    17.998478    20.762083 
     936    145.70332    1.6220404    45.555387    18.434423    21.264965 
     937    143.25131    1.7024386     44.82667     18.13954    20.924805 
     938     137.3765    1.7240272    44.638775    18.063507    20.837096 
     939    132.74743    1.6414598    45.375025    18.361437    21.180773 
     940    142.61715    1.7392631    44.508047    18.010606    20.776073 
     941    144.37862    1.6523516    45.275106    18.321004    21.134132 
     942    159.92257    1.7341198    44.552007    18.028395    20.796593 
     943    162.69218    1.6494712    45.301445    18.331662    21.146426 
     944     178.5677    1.7312831    44.576326    18.038236    20.807945 
     945    175.02194    1.6540176      45.2599    18.314851    21.127033 
     946      183.206    1.7208602    44.666141    18.074581    20.849871 
     947    172.77142    1.6612052     45.19453    18.288398    21.096519 
     948    172.70811    1.7070551    44.786224    18.123174    20.905925 
     949    165.30695    1.6797155    45.027903    18.220971    21.018739 
     950    163.07031    1.6988987    44.857783     18.15213    20.939328 
     951     158.9588    1.6838791     44.99076    18.205941    21.001401 
     952    158.71994    1.7038729    44.814088    18.134449    20.918931 
     953    150.33531    1.6684137    45.129347    18.262022    21.066092 
     954    149.80495    1.7394592    44.506375     18.00993    20.775293 
     955    138.04224    1.6346182    45.438242    18.387019    21.210283 
     956    143.35503    1.7405139    44.497383    18.006291    20.771095 
     957    137.29224    1.6566377    45.236027     18.30519     21.11589 
     958    144.37079    1.7268939     44.61406    18.053506    20.825559 
     959    143.37387    1.6525379    45.273405    18.320316    21.133337 
     960    155.51973    1.7287158    44.598382    18.047161    20.818241 
     961     154.6376    1.6596758    45.208408    18.294014    21.102997 
     962    163.02052    1.7060109     44.79536    18.126871    20.910189 
     963    161.19779    1.6806891    45.019207    18.217452     21.01468 
     964    162.46667    1.6883651    44.950878    18.189802    20.982784 
     965    163.61772    1.6954495    44.888181    18.164431    20.953518 
     966    162.32115    1.6789267    45.034954    18.223824     21.02203 
     967    164.75222    1.7008662     44.84048    18.145128    20.931251 
     968    161.84649    1.6734195    45.084303    18.243794    21.045066 
     969     164.3893    1.7151926    44.715285    18.094467    20.872811 
     970    156.11327    1.6491222     45.30464    18.332955    21.147918 
     971    160.17069    1.7500424    44.416477    17.973552    20.733329 
     972    151.64413    1.6452411    45.340236     18.34736    21.164534 
     973    159.11829    1.7405501    44.497074    18.006166    20.770951 
     974    152.79204    1.6459684    45.333558    18.344657    21.161416 
     975    162.17719    1.7385059    44.514508    18.013221    20.779089 
     976    154.16553    1.6473833    45.320575    18.339404    21.155356 
     977    158.76846    1.7163297    44.705408     18.09047      20.8682 
     978    152.24616    1.6683245    45.130152    18.262347    21.066468 
     979    155.99161    1.6851203    44.979711     18.20147    20.996243 
     980    160.39921    1.6981858    44.864059     18.15467    20.942258 
     981    156.12095    1.6651232    45.159055    18.274043     21.07996 
     982    153.05498    1.7043898    44.809557    18.132615    20.916816 
     983    143.21081    1.6646662    45.163187    18.275715    21.081888 
     984    141.34737    1.7014745    44.835136    18.142966    20.928756 
     985    139.10407    1.6743765    45.075711    18.240317    21.041055 
     986     144.0411    1.6971356    44.873311    18.158414    20.946576 
     987    149.70418    1.6765655    45.056086    18.232376    21.031894 
     988    159.95165    1.7033404    44.818758    18.136339    20.921111 
     989    159.15873    1.6548436    45.252368    18.311803    21.123518 
     990    166.56634    1.7501778    44.415331    17.973088    20.732794 
     991    158.70934    1.6409424    45.379794    18.363367    21.182999 
     992    167.52664    1.7353112    44.541809    18.024268    20.791833 
     993    159.13023    1.6451949    45.340661    18.347532    21.164732 
     994    164.20744     1.731955     44.57056    18.035903    20.805254 
     995    154.27327    1.6463602    45.329961    18.343202    21.159737 
     996    157.51886    1.7215372    44.660285    18.072211    20.847137 
     997     147.6978    1.6548481    45.252327    18.311787    21.123499 
     998     148.6914    1.7057578    44.797576    18.127767    20.911223 
     999       144.42     1.672525    45.092339    18.247046    21.048817 
    1000    147.46961    1.6961392    44.882097    18.161969    20.950677 
    1001     149.7488    1.6829502    44.999036     18.20929    21.005264 
    1002    153.79678    1.6961452    44.882043    18.161948    20.950652 
    1003     153.7855    1.6777099    45.045839    18.228229    21.027111 
    1004    157.90755    1.7139952    44.725695     18.09868     20.87767 
    1005    149.46064    1.6366122    45.419781    18.379548    21.201665 
    1006    154.19788    1.7309264    44.579388    18.039475    20.809375 
    1007    148.53455       1.6435    45.356242    18.353837    21.172005 
    1008    154.52545    1.7208649      44.6661    18.074564    20.849852 
    1009    150.56943    1.6478531    45.316268    18.337661    21.153346 
    1010    158.01232    1.7211752    44.663417    18.073478    20.848599 
    1011    153.94947    1.6452448    45.340202    18.347346    21.164518 
    1012    162.17822    1.7189051     44.68307    18.081431    20.857773 
    1013    155.68789    1.6522115    45.276386    18.321522    21.134729 
    1014    159.18974    1.7036514    44.816031    18.135235    20.919838 
    1015    154.07466    1.6789756    45.034517    18.223647    21.021826 
    1016    153.25947    1.6855199    44.976156    18.200031    20.994584 
    1017    153.23182    1.6957801    44.885264    18.163251    20.952156 
    1018    148.41243    1.6710478    45.105622    18.252421    21.055017 
    1019    149.84335    1.7082538    44.775746    18.118934    20.901034 
    1020     138.4786     1.648776    45.307811    18.334238    21.149398 
    1021    138.39182    1.7358698     44.53703    18.022334    20.789602 
    1022     128.5448    1.6303128    45.478205     18.40319    21.228937 
    1023    133.45342    1.7255704    44.625463     18.05812    20.830883 
    1024    130.89335     1.648447    45.310825    18.335458    21.150805 
    1025    140.69475    1.7244963    44.634727    18.061869    20.835207 
    1026    143.62793    1.6418747    45.371204    18.359891    21.178989 
    1027    160.76623    1.7239565    44.639384    18.063753    20.837381 
    1028    161.22885    1.6508275    45.289035    18.326641    21.140634 
    1029    172.57643     1.696267     44.88097    18.161513    20.950151 
    1030    177.92675    1.6958503    44.884645       18.163    20.951867 
    1031    180.96017    1.6654683    45.155936    18.272781    21.078504 
    1032    185.39312    1.6996555    44.851124    18.149436    20.936219 
    1033    179.06877    1.6668455    45.143496    18.267747    21.072697 
[...]
    1761    144.85345    1.6568304    45.234273    18.304481    21.115071 
    1762    152.93177    1.6393484    45.394498    18.369317    21.189863 
    1763    166.94465    1.6545511    45.255035    18.312882    21.124763 
    1764    174.50712    1.6314865    45.467297    18.398776    21.223845 
    1765    184.30247    1.6722513    45.094799    18.248041    21.049965 
    1766    179.42117    1.5999664    45.763933    18.518813    21.362313 
    1767     192.2108    1.7222224    44.654362    18.069814    20.844372 
    1768    175.16827     1.624692    45.530591    18.424389     21.25339 
    1769    166.04144    1.6392953    45.394988    18.369516    21.190092 
    1770    165.15179    1.6671975    45.140318    18.266461    21.071213 
    1771    161.87581    1.6225914    45.550231    18.432336    21.262558 
    1772    165.83943    1.6652081    45.158287    18.273732    21.079601 
    1773    166.18177    1.6290744    45.489727    18.407852    21.234315 
    1774    173.53361    1.6585918    45.218255    18.297999    21.107594 
    1775    172.71348    1.6273492    45.505796    18.414355    21.241816 
    1776     177.5629    1.6599623    45.205807    18.292962    21.101783 
    1777    168.04063     1.621491    45.560532    18.436505    21.267367 
    1778    166.69708    1.6776989    45.045937    18.228269    21.027157 
    1779    152.06588    1.5983004    45.779828    18.525245    21.369733 
    1780    154.50132    1.7113248    44.748947    18.108089    20.888524 
    1781    143.30763    1.6153461    45.618231    18.459853      21.2943 
    1782    141.64355    1.6653365    45.157127    18.273263     21.07906 
    1783    136.71725    1.6254837    45.523198    18.421397    21.249939 
    1784    141.68705    1.6674108    45.138393    18.265682    21.070315 
    1785    142.03245    1.6153683    45.618022    18.459768    21.294202 
    1786    151.68654    1.6812795    45.013936    18.215319    21.012219 
    1787    151.04635    1.6065766    45.701083     18.49338    21.332975 
    1788     162.5216    1.6895713    44.940179    18.185473     20.97779 
    1789     156.9788    1.6075645    45.691719    18.489591    21.328604 
    1790    161.48209    1.6618774    45.188436    18.285932    21.093674 
    1791    157.85891    1.6388059    45.399506    18.371344    21.192201 
    1792    159.19872    1.6379888    45.407054    18.374398    21.195724 
    1793    164.14762    1.6508492    45.288836     18.32656    21.140541 
    1794    166.38762    1.6378081    45.408724    18.375074    21.196503 
    1795    168.26413    1.6494216    45.301899    18.331846    21.146638 
    1796      166.106    1.6380932    45.406089    18.374008    21.195274 
    1797    167.74305    1.6555867    45.245597    18.309063    21.120357 
    1798    159.67599    1.6248297    45.529304    18.423868     21.25279 
    1799    160.42377    1.6891695    44.943741    18.186914    20.979452 
    1800    146.80886    1.5840133    45.917055    18.580775    21.433789 
    1801    148.98593    1.6970159    44.874366    18.158841    20.947069 
    1802    139.74697    1.6103335    45.665515    18.478987    21.316372 
    1803    140.87629     1.672614    45.091539    18.246722    21.048444 
    1804    137.62057     1.612238    45.647527    18.471708    21.307975 
    1805    147.64541    1.6792793    45.031802    18.222549    21.020559 
    1806    144.85203     1.603735    45.728059    18.504296    21.345567 
    1807    157.08129    1.6850124    44.980672    18.201858    20.996691 
    1808    153.60868    1.6058175    45.708282    18.496293    21.336335 
    1809    161.37692    1.6666971    45.144835    18.268289    21.073322 
    1810    156.76399    1.6256244    45.521884    18.420865    21.249326 
    1811    160.11571     1.643474    45.356481    18.353933    21.172117 
    1812    163.27962    1.6535921    45.263782    18.316422    21.128846 
    1813     162.6637    1.6261436    45.517039    18.418905    21.247064 
    1814    167.03287    1.6519978    45.278338    18.322312     21.13564 
    1815    167.57884    1.6369383    45.416765    18.378328    21.200257 
    1816    170.04946    1.6437998    45.353484    18.352721    21.170718 
    1817    171.80731    1.6440585    45.351105    18.351758    21.169607 
    1818    171.58145    1.6441573    45.350197     18.35139    21.169183 
    1819    172.12399    1.6513134    45.284592    18.324843     21.13856 
    1820    166.44863    1.6368043    45.418004    18.378829    21.200836 
    1821    168.50391    1.6889236    44.945923    18.187797    20.980471 
    1822    155.60833       1.5734    46.020068     18.62246    21.481875 
    1823    155.08159    1.6737844    45.081026    18.242468    21.043536 
    1824    141.19237    1.6265129    45.513593     18.41751    21.245456 
    1825    142.90617    1.6975723    44.869463    18.156857     20.94478 
    1826    136.71897     1.591258    45.847265    18.552534    21.401212 
    1827    146.14543    1.6854735    44.976569    18.200198    20.994776 
    1828    143.48286    1.6149944    45.621542    18.461193    21.295846 
    1829    154.35287    1.6899653    44.936686    18.184059    20.976159 
    1830    153.62642    1.6032708    45.732471    18.506081    21.347627 
    1831    167.57603    1.6868484    44.964346    18.195252    20.989071 
    1832    164.05907    1.6132341    45.638129    18.467905    21.303588 
    1833    171.04974    1.6700675    45.114446    18.255991    21.059136 
    1834     163.0041    1.6265409    45.513333    18.417405    21.245334 
    1835    164.41258    1.6551704     45.24939    18.310598    21.122128 
    1836    163.57115    1.6357737     45.42754    18.382688    21.205287 
    1837    169.95859    1.6491254    45.304611    18.332944    21.147904 
    1838    174.52223    1.6383111    45.404076    18.373193    21.194334 
    1839    178.56839    1.6521607     45.27685     18.32171    21.134946 
    1840    174.40284    1.6295751    45.485067    18.405967     21.23214 
    1841    175.35437    1.6755103    45.065542    18.236202    21.036308 
    1842    164.99907    1.5977826    45.784774    18.527246    21.372041 
    1843    169.55989    1.6887491    44.947471    18.188423    20.981193 
    1844    158.30994    1.6061308    45.705311    18.495091    21.334948 
    1845    161.21524    1.6758374     45.06261    18.235015     21.03494 
    1846     151.7995    1.6137866     45.63292    18.465797    21.301157 
    1847    153.19627    1.6732195    45.086099    18.244521    21.045904 
    1848    147.54614    1.6139439    45.631438    18.465197    21.300465 
    1849    153.44416    1.6707236    45.108539    18.253601    21.056379 
    1850    150.53783    1.6161925    45.610266     18.45663    21.290582 
    1851    157.52075    1.6633337    45.175243    18.280594    21.087516 
    1852    152.92472    1.6241944     45.53524     18.42627     21.25556 
    1853    156.62771    1.6514774    45.283094    18.324236     21.13786 
    1854    157.33948    1.6424274    45.366114    18.357831    21.176613 
    1855    157.75415    1.6430377    45.360495    18.355558    21.173991 
    1856    157.64103    1.6513422    45.284329    18.324736    21.138437 
    1857    151.69127    1.6359425    45.425979    18.382056    21.204558 
    1858    151.15667     1.665071    45.159527    18.274234     21.08018 
    1859    143.90672    1.6137518    45.633249     18.46593     21.30131 
    1860    146.75653    1.6884338    44.950268    18.189556    20.982499 
    1861    140.86107    1.5967101    45.795022    18.531393    21.376825 
    1862    149.78332    1.6867336    44.965366    18.195665    20.989547 
    1863    147.61803    1.6071606    45.695547    18.491139     21.33039 
    1864    159.10565    1.6784597     45.03913    18.225514     21.02398 
    1865    157.80499    1.6046896    45.718989    18.500626    21.341333 
    1866    169.63738    1.6809362       45.017    18.216559     21.01365 
    1867    167.12004    1.6006711    45.757217    18.516095    21.359178 
    1868    178.34537     1.675289    45.067526    18.237005    21.037235 
    1869     172.5237    1.6060729     45.70586    18.495313    21.335205 
    1870    177.99645    1.6616058    45.190897    18.286928    21.094824 
    1871    167.93844    1.6318108    45.464285    18.397557    21.222439 
    1872    162.66682    1.6370396    45.415828    18.377949     21.19982 
    1873     159.4122    1.6518432    45.279751    18.322884      21.1363 
    1874    152.82992    1.6309599     45.47219    18.400756    21.226129 
    1875    149.48291    1.6458714    45.334448    18.345018    21.161832 
    1876    144.46236    1.6426112    45.364421    18.357146    21.175823 
    1877    140.25553    1.6424667    45.365751    18.357685    21.176444 
    1878    140.00745    1.6505364    45.291698    18.327718    21.141876 
    1879    138.13261    1.6382268    45.404855    18.373508    21.194698 
    1880    141.57163    1.6658451    45.152531    18.271403    21.076914 
    1881    134.52321    1.5978954    45.783696     18.52681    21.371538 
    1882    139.99556    1.6918753    44.919769    18.177214    20.968262 
    1883    135.68399      1.59189    45.841197    18.550078    21.398379 
    1884    143.81235    1.6778338     45.04473     18.22778    21.026593 
    1885    141.38978    1.6090472     45.67768    18.483909     21.32205 
    1886    151.75425    1.6721475    45.095732    18.248419    21.050401 
    1887    151.27785    1.6101452    45.667294    18.479707    21.317203 
    1888    163.14042    1.6703502      45.1119    18.254961    21.057948 
    1889    161.53209    1.6090089    45.678043    18.484056     21.32222 
    1890    171.78807    1.6745312    45.074324    18.239756    21.040408 
    1891    167.30312    1.5985209    45.777724    18.524393     21.36875 
    1892    178.84219    1.6929253     44.91048    18.173455    20.963927 
    1893    170.90181    1.6022438    45.742241    18.510035    21.352187 
    1894    174.73866     1.667913    45.133863    18.263849      21.0682 
    1895    161.30547    1.6230258    45.546167    18.430691    21.260661 
    1896    157.66449    1.6444824    45.347209    18.350181    21.167789 
    1897    159.22843    1.6523697    45.274941    18.320937    21.134054 
    1898    159.47069    1.6272517    45.506705    18.414723     21.24224 
    1899    163.68024    1.6631091    45.177277    18.281417    21.088465 
    1900    159.11541    1.6132968    45.637538    18.467666    21.303312 
    1901    164.55899    1.6797033    45.028012    18.221015     21.01879 
    1902    156.43026    1.5986484    45.776507    18.523901    21.368182 
    1903    162.98885     1.682581    45.002327    18.210622      21.0068 
    1904    154.24967    1.6079757    45.687824    18.488014    21.326786 
    1905    157.36143    1.6649276    45.160823    18.274759    21.080785 
    1906    151.93947    1.6220481    45.555316    18.434394    21.264932 
    1907     153.6176    1.6554989    45.246397    18.309387     21.12073 
    1908    149.92578    1.6268161    45.510766    18.416366    21.244136 
    1909    150.96242    1.6524689    45.274035    18.320571    21.133631 
    1910    146.50828    1.6282696     45.49722    18.410885    21.237813 
    1911    146.55179     1.651829     45.27988    18.322936     21.13636 
    1912    142.72238    1.6297726     45.48323    18.405223    21.231282 
    1913    144.60959    1.6521432     45.27701    18.321775     21.13502 
    1914    142.90329    1.6294043    45.486657     18.40661    21.232882 
    1915    147.03288     1.658621    45.217989    18.297891     21.10747 
    1916    143.67857    1.6174006    45.598907    18.452034     21.28528 
    1917    147.84766    1.6769747    45.052421    18.230892    21.030183 
    1918    143.94126    1.5968918    45.793286    18.530691    21.376015 
    1919    153.74973    1.6903979    44.932852    18.182508    20.974369 
    1920    147.50112    1.6022497    45.742184    18.510012    21.352161 
    1921    154.79886    1.6671253     45.14097    18.266725    21.071518 
    1922    153.19174    1.6229057    45.547289    18.431146    21.261185 
    1923    160.90157     1.650871    45.288637     18.32648    21.140448 
    1924    167.83039    1.6439169    45.352408    18.352285    21.170216 
    1925    173.87351    1.6366789    45.419164    18.379299    21.201377 
    1926    176.07574    1.6526141    45.272709    18.320034    21.133013 
    1927    167.33621    1.6232015    45.544522    18.430026    21.259893 
    1928     166.1282    1.6682817    45.130537    18.262503    21.066648 
    1929    151.80532    1.5961267    45.800602    18.533651     21.37943 
    1930    153.73982    1.7000172    44.847943    18.148149    20.934734 
    1931    143.08612    1.6031059    45.734039    18.506716    21.348359 
    1932    144.90242    1.6666036    45.145679     18.26863    21.073716 
    1933    141.04538    1.6192936    45.581131     18.44484    21.276982 
    1934    148.46464    1.6626256    45.181656    18.283189     21.09051 
    1935    152.04161    1.6168519    45.604065     18.45412    21.287687 
    1936    163.35239    1.6676232    45.136477    18.264906     21.06942 
    1937    162.84297    1.6001776     45.76192    18.517998    21.361373 
    1938    176.33533    1.6924047    44.915085    18.175318    20.966076 
    1939    169.30166    1.5962006    45.799894    18.533365    21.379099 
    1940    174.57692    1.6683716    45.129727    18.262175     21.06627 
    1941    160.68937     1.620888    45.566181     18.43879    21.270003 
    1942    158.01615    1.6342552    45.441606     18.38838    21.211853 
    1943    162.30749    1.6588409    45.215991    18.297083    21.106537 
    1944    161.69372    1.6175327    45.597665    18.451531      21.2847 
    1945    166.42367    1.6539658    45.260373    18.315042    21.127254 
    1946    164.88529    1.6306763    45.474826    18.401823     21.22736 
    1947    169.67798    1.6391193    45.396612    18.370173     21.19085 
    1948    174.26973    1.6412866    45.376622    18.362083    21.181518 
    1949    175.03788    1.6357992    45.427305    18.382593    21.205177 
    1950     176.1962     1.650924    45.288153    18.326284    21.140222 
    1951    167.09711    1.6229632    45.546752    18.430928    21.260934 
    1952    167.49769    1.6848297    44.982297    18.202516     20.99745 
    1953    152.15184    1.5763156    45.991677    18.610971    21.468622 
    1954    155.96461    1.6934599    44.905754    18.171542     20.96172 
    1955    140.91651    1.6069382    45.697654    18.491992    21.331374 
    1956    136.81606     1.673802    45.080869    18.242404    21.043463 
    1957    128.06798    1.6072777    45.694436     18.49069    21.329872 
    1958    133.46036    1.6833647    44.995342    18.207795     21.00354 
    1959    132.17605    1.6025144    45.739666    18.508993    21.350985 
    1960    145.16739    1.6778311    45.044754     18.22779    21.026605 
    1961    147.08152    1.6107814    45.661281    18.477274    21.314396 
    1962    162.18665    1.6639965    45.169245    18.278166    21.084716 
    1963     166.6233    1.6196638    45.577658    18.443435    21.275361 
    1964    180.41376    1.6538982     45.26099    18.315292    21.127542 
    1965    183.17697    1.6206429    45.568478     18.43972    21.271076 
    1966    189.19256    1.6616602    45.190405    18.286729    21.094593 
    1967    177.97839    1.6060745    45.705844    18.495307    21.335197 
    1968    179.30766    1.6846051    44.984296    18.203325    20.998383 
    1969    161.57184    1.5971321    45.790989    18.529761    21.374942 
    1970    160.22208    1.6777816    45.045197    18.227969    21.026812 
    1971    146.19747    1.6106291    45.662721    18.477856    21.315068 
    1972    145.21394    1.6621013    45.186406    18.285111    21.092727 
    1973    140.89307    1.6206173    45.568718    18.439817    21.271188 
    1974    145.47914    1.6576559    45.226763    18.301442    21.111565 
    1975    147.22355     1.623104    45.545435    18.430395    21.260319 
    1976    155.94831    1.6574185    45.228923    18.302316    21.112573 
    1977     156.4584     1.619507    45.579129     18.44403    21.276048 
    1978    162.68815     1.663609    45.172752    18.279586    21.086353 
    1979    157.55849    1.6109427    45.659757    18.476657    21.313684 
    1980    162.50882    1.6708228    45.107647     18.25324    21.055963 
    1981    155.45914    1.6043597    45.722123    18.501894    21.342796 
    1982    161.43281    1.6737882    45.080992    18.242454     21.04352 
    1983    151.08615    1.6062136    45.704525    18.494773    21.334582 
    1984    153.37819    1.6687224    45.126565    18.260895    21.064793 
    1985    145.42742    1.6119439    45.650303    18.472831    21.309271 
    1986    146.76967    1.6663579    45.147898    18.269528    21.074752 
    1987    141.37117    1.6109859     45.65935    18.476492    21.313494 
    1988    146.01468    1.6682973    45.130396    18.262446    21.066582 
    1989    140.49721    1.6050523    45.715545    18.499232    21.339726 
    1990     146.8731    1.6707084    45.108676    18.253657    21.056443 
    1991    141.30434    1.6026353    45.738515    18.508527    21.350448 
    1992    147.69477    1.6634457     45.17423    18.280184    21.087043 
    1993    143.79247    1.6201401    45.573191    18.441627    21.273276 
    1994    147.82211    1.6438907    45.352649    18.352383    21.170328 
    1995    150.01831    1.6479627    45.315263    18.337254    21.152877 
    1996    146.13197    1.6222716    45.553223    18.433547    21.263955 
    1997    146.25586    1.6581988    45.221827    18.299444    21.109261 
    1998    138.81982    1.6133382    45.637148    18.467508     21.30313 
    1999    140.71472     1.664435    45.165278    18.276561    21.082864 
    2000    137.04393    1.6046409    45.719451    18.500813    21.341549 
    2001    145.95375    1.6720489    45.096618    18.248777    21.050815 
    2002    145.79644     1.595879    45.802971     18.53461    21.380535 
    2003    159.52495    1.6786662    45.037283    18.224767    21.023117 
    2004    159.52496    1.5921734    45.838477    18.548978    21.397109 
    2005    174.20525    1.6784367    45.039336    18.225597    21.024075 
    2006    172.30841    1.5937617    45.823245    18.542814    21.389999 
    2007     182.2401    1.6618884    45.188336    18.285892    21.093628 
    2008    175.67062    1.6286485    45.493691    18.409457    21.236166 
    2009    175.51932    1.6257648    45.520574    18.420335    21.248714 
    2010    177.58855    1.6467692    45.326208    18.341683    21.157986 
Loop time of 146.292 on 24 procs for 2000 steps with 1512 atoms

Performance: 0.177 ns/day, 135.455 hours/ns, 13.671 timesteps/s
98.9% CPU use with 24 MPI tasks x no OpenMP threads

MPI task timing breakdown:
Section |  min time  |  avg time  |  max time  |%varavg| %total
---------------------------------------------------------------
Pair    | 142.51     | 142.58     | 142.85     |   0.5 | 97.46
Bond    | 0.0054452  | 0.0074018  | 0.008594   |   1.0 |  0.01
Neigh   | 2.1549     | 2.1834     | 2.2472     |   1.4 |  1.49
Comm    | 0.33716    | 0.56434    | 0.62932    |  14.0 |  0.39
Output  | 0.088422   | 0.1125     | 0.45604    |  21.4 |  0.08
Modify  | 0.35528    | 0.7382     | 0.96862    |  14.5 |  0.50
Other   |            | 0.1044     |            |       |  0.07

Nlocal:    63 ave 66 max 60 min
Histogram: 1 2 0 6 0 7 5 0 1 2
Nghost:    3328.75 ave 3349 max 3318 min
Histogram: 5 4 2 4 3 3 0 1 1 1
Neighs:    39176.2 ave 40978 max 37399 min
Histogram: 1 2 0 6 4 3 5 0 1 2

Total # of neighbors = 940228
Ave neighs/atom = 621.844
Ave special neighs/atom = 0
Neighbor list builds = 84
Dangerous builds = 11

Please see the log.cite file for references relevant to this simulation

Total wall time: 0:02:27
