LAMMPS data file. msi2lmp v3.9.8 / 06 Oct 2016 / CGCMM for TNT

   1512 atoms
   5 atom types

    -3.633375042    41.100524958 xlo xhi
     0.000000000    18.102000000 ylo yhi
     0.000000000    19.576296521 zlo zhi
     0.000000000    -7.266750084     0.000000000 xy xz yz

Masses

   1  15.999400 # o
   2  14.006700 # n3
   3  12.011150 # c3
   4  12.011150 # c
   5   1.007970 # h

Atoms # full

      1      1   1  0.000000     7.441360994     3.138042040     8.710473137   0   0   0 # o
      2      1   1  0.000000     5.805500001     1.760178140     9.102782119   0   0   0 # o
      3      1   1  0.000000     5.609922396    16.815128820     5.036981095   0  -1   0 # o
      4      1   1  0.000000     6.924619718    15.153123860     5.543615649   0  -1   0 # o
      5      1   1  0.000000    11.426638984    16.625540540     7.591100502   0  -1   0 # o
      6      1   1  0.000000    11.636170383     0.519708420     6.759499426   0   0   0 # o
      7      1   1  0.000000     3.587029497     6.100555020     1.140123509   0   0   0 # o
      8      1   1  0.000000     2.035668947     4.666152540     0.615870289   0   0   0 # o
      9      1   1  0.000000     1.707782590     1.702553440     4.689110306   0   0   0 # o
     10      1   1  0.000000     3.194174683     0.125748560     4.530346541   0   0   0 # o
     11      1   1  0.000000     7.887976261     3.437207760     2.786490047   0   0   0 # o
     12      1   1  0.000000     7.531133744     1.354934700     2.290426693   0   0   0 # o
     13      1   2  0.000000     6.899720537     2.039069620     8.619051832   0   0   0 # n3
     14      1   2  0.000000     6.581828293    16.330055560     5.607434375   0  -1   0 # n3
     15      1   2  0.000000    10.971785719    17.693739560     7.206426275   0  -1   0 # n3
     16      1   2  0.000000     3.085092707     4.976662180     1.168704902   0   0   0 # n3
     17      1   2  0.000000     2.769170522     1.248494940     4.279769945   0   0   0 # n3
     18      1   2  0.000000     7.150519032     2.492162680     2.537283792   0   0   0 # n3
     19      1   3  0.000000     9.861342375     1.714983480     8.844570768   0   0   0 # c3
     20      1   4  0.000000     8.989816507     0.852905900     7.975578966   0   0   0 # c
     21      1   4  0.000000     7.597426823     0.983119620     7.870258490   0   0   0 # c
     22      1   4  0.000000     6.792853400     0.164788540     7.094058333   0   0   0 # c
     23      1   4  0.000000     7.403510396    17.225320140     6.425919333   0  -1   0 # c
     24      1   4  0.000000     8.765155235    16.979676000     6.505203334   0  -1   0 # c
     25      1   4  0.000000     9.506764957    17.880310840     7.246557683   0  -1   0 # c
     26      1   3  0.000000     6.017305286     4.635077440     0.896202855   0   0   0 # c3
     27      1   4  0.000000     5.174764350     3.790860500     1.810220139   0   0   0 # c
     28      1   4  0.000000     3.784733907     3.933262900     1.933942333   0   0   0 # c
     29      1   4  0.000000     2.980619852     3.138645440     2.735200150   0   0   0 # c
     30      1   4  0.000000     3.592873692     2.115098020     3.430158676   0   0   0 # c
     31      1   4  0.000000     4.952951548     1.865592120     3.339324661   0   0   0 # c
     32      1   4  0.000000     5.694252371     2.730203980     2.557447377   0   0   0 # c
     33      1   5  0.000000    10.673181431     1.230936000     9.083401586   0   0   0 # h
     34      1   5  0.000000    10.111756234     2.576518000     8.386485430   0   0   0 # h
     35      1   5  0.000000     9.406763419     1.942948000     9.655029444   0   0   0 # h
     36      1   5  0.000000     5.855617275     0.313768000     7.025932821   0   0   0 # h
     37      1   5  0.000000     9.174185539    16.261630000     6.027541699   0  -1   0 # h
     38      1   5  0.000000     6.289926939     5.442668000     1.348806830   0   0   0 # h
     39      1   5  0.000000     6.779908367     4.133290000     0.591204155   0   0   0 # h
     40      1   5  0.000000     5.541219125     4.869438000     0.095923853   0   0   0 # h
     41      1   5  0.000000     2.029486938     3.288530000     2.787664625   0   0   0 # h
     42      1   5  0.000000     5.337840414     1.140426000     3.821293081   0   0   0 # h
     43      1   1  0.000000     7.658838922     6.155042040    10.865823384   0   0   0 # o
     44      1   1  0.000000     9.294699916     4.777178140    10.473514402   0   0   0 # o
     45      1   1  0.000000     9.490277520     1.730128820    14.539315426   0   0   0 # o
     46      1   1  0.000000     8.175580198     0.068123860    14.032680872   0   0   0 # o
     47      1   1  0.000000     3.673560932     1.540540540    11.985196019   0   0   0 # o
     48      1   1  0.000000     3.464029534     3.536708420    12.816797095   0   0   0 # o
     49      1   1  0.000000    -3.398129581     3.083555020    18.436173011   0   0   0 # o
     50      1   1  0.000000    -1.846769031     1.649152540    18.960426232   0   0   0 # o
     51      1   1  0.000000    -1.518882674    16.787553440    14.887186215   0  -1   0 # o
     52      1   1  0.000000    -3.005274766    15.210748560    15.045949980   0  -1   0 # o
     53      1   1  0.000000    -7.699076345     0.420207760    16.789806474   0   0   0 # o
     54      1   1  0.000000    -7.342233828    16.439934700    17.285869828   0  -1   0 # o
     55      1   2  0.000000     8.200479379     5.056069620    10.957244689   0   0   0 # n3
     56      1   2  0.000000     8.518371623     1.245055560    13.968862145   0   0   0 # n3
     57      1   2  0.000000     4.128414197     2.608739560    12.369870246   0   0   0 # n3
     58      1   2  0.000000    -2.896192791     1.959662180    18.407591619   0   0   0 # n3
     59      1   2  0.000000    -2.580270605    16.333494940    15.296526575   0  -1   0 # n3
     60      1   2  0.000000    -6.961619115    17.577162680    17.039012729   0  -1   0 # n3
     61      1   3  0.000000     5.238857541     4.731983480    10.731725753   0   0   0 # c3
     62      1   4  0.000000     6.110383409     3.869905900    11.600717555   0   0   0 # c
     63      1   4  0.000000     7.502773093     4.000119620    11.706038031   0   0   0 # c
     64      1   4  0.000000     8.307346517     3.181788540    12.482238188   0   0   0 # c
     65      1   4  0.000000     7.696689520     2.140320140    13.150377188   0   0   0 # c
     66      1   4  0.000000     6.335044681     1.894676000    13.071093187   0   0   0 # c
     67      1   4  0.000000     5.593434960     2.795310840    12.329738838   0   0   0 # c
     68      1   3  0.000000    -5.828405370     1.618077440    18.680093666   0   0   0 # c3
     69      1   4  0.000000    -4.985864433     0.773860500    17.766076382   0   0   0 # c
     70      1   4  0.000000    -3.595833991     0.916262900    17.642354188   0   0   0 # c
     71      1   4  0.000000    -2.791719936     0.121645440    16.841096371   0   0   0 # c
     72      1   4  0.000000    -3.403973776    17.200098020    16.146137844   0  -1   0 # c
     73      1   4  0.000000    -4.764051631    16.950592120    16.236971860   0  -1   0 # c
     74      1   4  0.000000    -5.505352455    17.815203980    17.018849143   0  -1   0 # c
     75      1   5  0.000000     4.427018485     4.247936000    10.492894935   0   0   0 # h
     76      1   5  0.000000     4.988443682     5.593518000    11.189811091   0   0   0 # h
     77      1   5  0.000000     5.693436498     4.959948000     9.921267077   0   0   0 # h
     78      1   5  0.000000     9.244582641     3.330768000    12.550363700   0   0   0 # h
     79      1   5  0.000000     5.926014377     1.176630000    13.548754822   0   0   0 # h
     80      1   5  0.000000    -6.101027023     2.425668000    18.227489691   0   0   0 # h
     81      1   5  0.000000    -6.591008451     1.116290000    18.985092366   0   0   0 # h
     82      1   5  0.000000    -5.352319208     1.852438000    19.480372668   0   0   0 # h
     83      1   5  0.000000    -1.840587022     0.271530000    16.788631896   0   0   0 # h
     84      1   5  0.000000    -5.148940497    16.225426000    15.755003440   0  -1   0 # h
     85      1   1  0.000000     0.203188922     2.895957960    10.865823384   0   0   0 # o
     86      1   1  0.000000     1.839049916     4.273821860    10.473514402   0   0   0 # o
     87      1   1  0.000000     2.034627520     7.320871180    14.539315426   0   0   0 # o
     88      1   1  0.000000     0.719930198     8.982876140    14.032680872   0   0   0 # o
     89      1   1  0.000000    -3.782089068     7.510459460    11.985196019   0   0   0 # o
     90      1   1  0.000000    -3.991620466     5.514291580    12.816797095   0   0   0 # o
     91      1   1  0.000000     4.057520419    18.035444980    18.436173011   0  -1   0 # o
     92      1   1  0.000000     5.608880969     1.367847460    18.960426232   0   0   0 # o
     93      1   1  0.000000     5.936767326     4.331446560    14.887186215   0   0   0 # o
     94      1   1  0.000000     4.450375234     5.908251440    15.045949980   0   0   0 # o
     95      1   1  0.000000    -0.243426345     2.596792240    16.789806474   0   0   0 # o
     96      1   1  0.000000     0.113416172     4.679065300    17.285869828   0   0   0 # o
     97      1   2  0.000000     0.744829379     3.994930380    10.957244689   0   0   0 # n3
     98      1   2  0.000000     1.062721623     7.805944440    13.968862145   0   0   0 # n3
     99      1   2  0.000000    -3.327235803     6.442260440    12.369870246   0   0   0 # n3
    100      1   2  0.000000     4.559457209     1.057337820    18.407591619   0   0   0 # n3
    101      1   2  0.000000     4.875379395     4.785505060    15.296526575   0   0   0 # n3
    102      1   2  0.000000     0.494030885     3.541837320    17.039012729   0   0   0 # n3
    103      1   3  0.000000    -2.216792459     4.319016520    10.731725753   0   0   0 # c3
    104      1   4  0.000000    -1.345266591     5.181094100    11.600717555   0   0   0 # c
    105      1   4  0.000000     0.047123093     5.050880380    11.706038031   0   0   0 # c
    106      1   4  0.000000     0.851696517     5.869211460    12.482238188   0   0   0 # c
    107      1   4  0.000000     0.241039520     6.910679860    13.150377188   0   0   0 # c
    108      1   4  0.000000    -1.120605319     7.156324000    13.071093187   0   0   0 # c
    109      1   4  0.000000    -1.862215040     6.255689160    12.329738838   0   0   0 # c
    110      1   3  0.000000     1.627244630     1.398922560    18.680093666   0   0   0 # c3
    111      1   4  0.000000     2.469785567     2.243139500    17.766076382   0   0   0 # c
    112      1   4  0.000000     3.859816009     2.100737100    17.642354188   0   0   0 # c
    113      1   4  0.000000     4.663930064     2.895354560    16.841096371   0   0   0 # c
    114      1   4  0.000000     4.051676224     3.918901980    16.146137844   0   0   0 # c
    115      1   4  0.000000     2.691598369     4.168407880    16.236971860   0   0   0 # c
    116      1   4  0.000000     1.950297545     3.303796020    17.018849143   0   0   0 # c
    117      1   5  0.000000    -3.028631515     4.803064000    10.492894935   0   0   0 # h
    118      1   5  0.000000    -2.467206318     3.457482000    11.189811091   0   0   0 # h
    119      1   5  0.000000    -1.762213502     4.091052000     9.921267077   0   0   0 # h
    120      1   5  0.000000     1.788932641     5.720232000    12.550363700   0   0   0 # h
    121      1   5  0.000000    -1.529635623     7.874370000    13.548754822   0   0   0 # h
    122      1   5  0.000000     1.354622977     0.591332000    18.227489691   0   0   0 # h
    123      1   5  0.000000     0.864641549     1.900710000    18.985092366   0   0   0 # h
    124      1   5  0.000000     2.103330792     1.164562000    19.480372668   0   0   0 # h
    125      1   5  0.000000     5.615062978     2.745470000    16.788631896   0   0   0 # h
    126      1   5  0.000000     2.306709503     4.893574000    15.755003440   0   0   0 # h
    127      1   1  0.000000    -0.014289006    17.980957960     8.710473137   0  -1   0 # o
    128      1   1  0.000000    -1.650149999     1.256821860     9.102782119   0   0   0 # o
    129      1   1  0.000000    -1.845727604     4.303871180     5.036981095   0   0   0 # o
    130      1   1  0.000000    -0.531030282     5.965876140     5.543615649   0   0   0 # o
    131      1   1  0.000000     3.970988984     4.493459460     7.591100502   0   0   0 # o
    132      1   1  0.000000     4.180520383     2.497291580     6.759499426   0   0   0 # o
    133      1   1  0.000000    11.042679497     2.950444980     1.140123509   0   0   0 # o
    134      1   1  0.000000     9.491318947     4.384847460     0.615870289   0   0   0 # o
    135      1   1  0.000000     9.163432590     7.348446560     4.689110306   0   0   0 # o
    136      1   1  0.000000    10.649824683     8.925251440     4.530346541   0   0   0 # o
    137      1   1  0.000000    15.343626261     5.613792240     2.786490047   0   0   0 # o
    138      1   1  0.000000    14.986783744     7.696065300     2.290426693   0   0   0 # o
    139      1   2  0.000000    -0.555929463     0.977930380     8.619051832   0   0   0 # n3
    140      1   2  0.000000    -0.873821707     4.788944440     5.607434375   0   0   0 # n3
    141      1   2  0.000000     3.516135719     3.425260440     7.206426275   0   0   0 # n3
    142      1   2  0.000000    10.540742707     4.074337820     1.168704902   0   0   0 # n3
    143      1   2  0.000000    10.224820522     7.802505060     4.279769945   0   0   0 # n3
    144      1   2  0.000000    14.606169032     6.558837320     2.537283792   0   0   0 # n3
    145      1   3  0.000000     2.405692375     1.302016520     8.844570768   0   0   0 # c3
    146      1   4  0.000000     1.534166507     2.164094100     7.975578966   0   0   0 # c
    147      1   4  0.000000     0.141776823     2.033880380     7.870258490   0   0   0 # c
    148      1   4  0.000000    -0.662796600     2.852211460     7.094058333   0   0   0 # c
    149      1   4  0.000000    -0.052139604     3.893679860     6.425919333   0   0   0 # c
    150      1   4  0.000000     1.309505235     4.139324000     6.505203334   0   0   0 # c
    151      1   4  0.000000     2.051114957     3.238689160     7.246557683   0   0   0 # c
    152      1   3  0.000000    13.472955286     4.415922560     0.896202855   0   0   0 # c3
    153      1   4  0.000000    12.630414350     5.260139500     1.810220139   0   0   0 # c
    154      1   4  0.000000    11.240383907     5.117737100     1.933942333   0   0   0 # c
    155      1   4  0.000000    10.436269852     5.912354560     2.735200150   0   0   0 # c
    156      1   4  0.000000    11.048523692     6.935901980     3.430158676   0   0   0 # c
    157      1   4  0.000000    12.408601548     7.185407880     3.339324661   0   0   0 # c
    158      1   4  0.000000    13.149902371     6.320796020     2.557447377   0   0   0 # c
    159      1   5  0.000000     3.217531431     1.786064000     9.083401586   0   0   0 # h
    160      1   5  0.000000     2.656106234     0.440482000     8.386485430   0   0   0 # h
    161      1   5  0.000000     1.951113419     1.074052000     9.655029444   0   0   0 # h
    162      1   5  0.000000    -1.600032725     2.703232000     7.025932821   0   0   0 # h
    163      1   5  0.000000     1.718535539     4.857370000     6.027541699   0   0   0 # h
    164      1   5  0.000000    13.745576939     3.608332000     1.348806830   0   0   0 # h
    165      1   5  0.000000    14.235558367     4.917710000     0.591204155   0   0   0 # h
    166      1   5  0.000000    12.996869125     4.181562000     0.095923853   0   0   0 # h
    167      1   5  0.000000     9.485136938     5.762470000     2.787664625   0   0   0 # h
    168      1   5  0.000000    12.793490414     7.910574000     3.821293081   0   0   0 # h
    169      1   1  0.000000    22.352660994     3.138042040     8.710473137   0   0   0 # o
    170      1   1  0.000000    20.716800001     1.760178140     9.102782119   0   0   0 # o
    171      1   1  0.000000    20.521222396    16.815128820     5.036981095   0  -1   0 # o
    172      1   1  0.000000    21.835919718    15.153123860     5.543615649   0  -1   0 # o
    173      1   1  0.000000    26.337938984    16.625540540     7.591100502   0  -1   0 # o
    174      1   1  0.000000    26.547470383     0.519708420     6.759499426   0   0   0 # o
    175      1   1  0.000000    18.498329497     6.100555020     1.140123509   0   0   0 # o
    176      1   1  0.000000    16.946968947     4.666152540     0.615870289   0   0   0 # o
    177      1   1  0.000000    16.619082590     1.702553440     4.689110306   0   0   0 # o
    178      1   1  0.000000    18.105474683     0.125748560     4.530346541   0   0   0 # o
    179      1   1  0.000000    22.799276261     3.437207760     2.786490047   0   0   0 # o
    180      1   1  0.000000    22.442433744     1.354934700     2.290426693   0   0   0 # o
    181      1   2  0.000000    21.811020537     2.039069620     8.619051832   0   0   0 # n3
    182      1   2  0.000000    21.493128293    16.330055560     5.607434375   0  -1   0 # n3
    183      1   2  0.000000    25.883085719    17.693739560     7.206426275   0  -1   0 # n3
    184      1   2  0.000000    17.996392707     4.976662180     1.168704902   0   0   0 # n3
    185      1   2  0.000000    17.680470522     1.248494940     4.279769945   0   0   0 # n3
    186      1   2  0.000000    22.061819032     2.492162680     2.537283792   0   0   0 # n3
    187      1   3  0.000000    24.772642375     1.714983480     8.844570768   0   0   0 # c3
    188      1   4  0.000000    23.901116507     0.852905900     7.975578966   0   0   0 # c
    189      1   4  0.000000    22.508726823     0.983119620     7.870258490   0   0   0 # c
    190      1   4  0.000000    21.704153400     0.164788540     7.094058333   0   0   0 # c
    191      1   4  0.000000    22.314810396    17.225320140     6.425919333   0  -1   0 # c
    192      1   4  0.000000    23.676455235    16.979676000     6.505203334   0  -1   0 # c
    193      1   4  0.000000    24.418064957    17.880310840     7.246557683   0  -1   0 # c
    194      1   3  0.000000    20.928605286     4.635077440     0.896202855   0   0   0 # c3
    195      1   4  0.000000    20.086064350     3.790860500     1.810220139   0   0   0 # c
    196      1   4  0.000000    18.696033907     3.933262900     1.933942333   0   0   0 # c
    197      1   4  0.000000    17.891919852     3.138645440     2.735200150   0   0   0 # c
    198      1   4  0.000000    18.504173692     2.115098020     3.430158676   0   0   0 # c
    199      1   4  0.000000    19.864251548     1.865592120     3.339324661   0   0   0 # c
    200      1   4  0.000000    20.605552371     2.730203980     2.557447377   0   0   0 # c
    201      1   5  0.000000    25.584481431     1.230936000     9.083401586   0   0   0 # h
    202      1   5  0.000000    25.023056234     2.576518000     8.386485430   0   0   0 # h
    203      1   5  0.000000    24.318063419     1.942948000     9.655029444   0   0   0 # h
    204      1   5  0.000000    20.766917275     0.313768000     7.025932821   0   0   0 # h
    205      1   5  0.000000    24.085485539    16.261630000     6.027541699   0  -1   0 # h
    206      1   5  0.000000    21.201226939     5.442668000     1.348806830   0   0   0 # h
    207      1   5  0.000000    21.691208367     4.133290000     0.591204155   0   0   0 # h
    208      1   5  0.000000    20.452519125     4.869438000     0.095923853   0   0   0 # h
    209      1   5  0.000000    16.940786938     3.288530000     2.787664625   0   0   0 # h
    210      1   5  0.000000    20.249140414     1.140426000     3.821293081   0   0   0 # h
    211      1   1  0.000000    22.570138922     6.155042040    10.865823384   0   0   0 # o
    212      1   1  0.000000    24.205999916     4.777178140    10.473514402   0   0   0 # o
    213      1   1  0.000000    24.401577520     1.730128820    14.539315426   0   0   0 # o
    214      1   1  0.000000    23.086880198     0.068123860    14.032680872   0   0   0 # o
    215      1   1  0.000000    18.584860932     1.540540540    11.985196019   0   0   0 # o
    216      1   1  0.000000    18.375329534     3.536708420    12.816797095   0   0   0 # o
    217      1   1  0.000000    11.513170419     3.083555020    18.436173011   0   0   0 # o
    218      1   1  0.000000    13.064530969     1.649152540    18.960426232   0   0   0 # o
    219      1   1  0.000000    13.392417326    16.787553440    14.887186215   0  -1   0 # o
    220      1   1  0.000000    11.906025234    15.210748560    15.045949980   0  -1   0 # o
    221      1   1  0.000000     7.212223655     0.420207760    16.789806474   0   0   0 # o
    222      1   1  0.000000     7.569066172    16.439934700    17.285869828   0  -1   0 # o
    223      1   2  0.000000    23.111779379     5.056069620    10.957244689   0   0   0 # n3
    224      1   2  0.000000    23.429671623     1.245055560    13.968862145   0   0   0 # n3
    225      1   2  0.000000    19.039714197     2.608739560    12.369870246   0   0   0 # n3
    226      1   2  0.000000    12.015107209     1.959662180    18.407591619   0   0   0 # n3
    227      1   2  0.000000    12.331029395    16.333494940    15.296526575   0  -1   0 # n3
    228      1   2  0.000000     7.949680885    17.577162680    17.039012729   0  -1   0 # n3
    229      1   3  0.000000    20.150157541     4.731983480    10.731725753   0   0   0 # c3
    230      1   4  0.000000    21.021683409     3.869905900    11.600717555   0   0   0 # c
    231      1   4  0.000000    22.414073093     4.000119620    11.706038031   0   0   0 # c
    232      1   4  0.000000    23.218646517     3.181788540    12.482238188   0   0   0 # c
    233      1   4  0.000000    22.607989520     2.140320140    13.150377188   0   0   0 # c
    234      1   4  0.000000    21.246344681     1.894676000    13.071093187   0   0   0 # c
    235      1   4  0.000000    20.504734960     2.795310840    12.329738838   0   0   0 # c
    236      1   3  0.000000     9.082894630     1.618077440    18.680093666   0   0   0 # c3
    237      1   4  0.000000     9.925435567     0.773860500    17.766076382   0   0   0 # c
    238      1   4  0.000000    11.315466009     0.916262900    17.642354188   0   0   0 # c
    239      1   4  0.000000    12.119580064     0.121645440    16.841096371   0   0   0 # c
    240      1   4  0.000000    11.507326224    17.200098020    16.146137844   0  -1   0 # c
    241      1   4  0.000000    10.147248369    16.950592120    16.236971860   0  -1   0 # c
    242      1   4  0.000000     9.405947545    17.815203980    17.018849143   0  -1   0 # c
    243      1   5  0.000000    19.338318485     4.247936000    10.492894935   0   0   0 # h
    244      1   5  0.000000    19.899743682     5.593518000    11.189811091   0   0   0 # h
    245      1   5  0.000000    20.604736498     4.959948000     9.921267077   0   0   0 # h
    246      1   5  0.000000    24.155882641     3.330768000    12.550363700   0   0   0 # h
    247      1   5  0.000000    20.837314377     1.176630000    13.548754822   0   0   0 # h
    248      1   5  0.000000     8.810272977     2.425668000    18.227489691   0   0   0 # h
    249      1   5  0.000000     8.320291549     1.116290000    18.985092366   0   0   0 # h
    250      1   5  0.000000     9.558980792     1.852438000    19.480372668   0   0   0 # h
    251      1   5  0.000000    13.070712978     0.271530000    16.788631896   0   0   0 # h
    252      1   5  0.000000     9.762359503    16.225426000    15.755003440   0  -1   0 # h
    253      1   1  0.000000    15.114488922     2.895957960    10.865823384   0   0   0 # o
    254      1   1  0.000000    16.750349916     4.273821860    10.473514402   0   0   0 # o
    255      1   1  0.000000    16.945927520     7.320871180    14.539315426   0   0   0 # o
    256      1   1  0.000000    15.631230198     8.982876140    14.032680872   0   0   0 # o
    257      1   1  0.000000    11.129210932     7.510459460    11.985196019   0   0   0 # o
    258      1   1  0.000000    10.919679534     5.514291580    12.816797095   0   0   0 # o
    259      1   1  0.000000    18.968820419    18.035444980    18.436173011   0  -1   0 # o
    260      1   1  0.000000    20.520180969     1.367847460    18.960426232   0   0   0 # o
    261      1   1  0.000000    20.848067326     4.331446560    14.887186215   0   0   0 # o
    262      1   1  0.000000    19.361675234     5.908251440    15.045949980   0   0   0 # o
    263      1   1  0.000000    14.667873655     2.596792240    16.789806474   0   0   0 # o
    264      1   1  0.000000    15.024716172     4.679065300    17.285869828   0   0   0 # o
    265      1   2  0.000000    15.656129379     3.994930380    10.957244689   0   0   0 # n3
    266      1   2  0.000000    15.974021623     7.805944440    13.968862145   0   0   0 # n3
    267      1   2  0.000000    11.584064197     6.442260440    12.369870246   0   0   0 # n3
    268      1   2  0.000000    19.470757209     1.057337820    18.407591619   0   0   0 # n3
    269      1   2  0.000000    19.786679395     4.785505060    15.296526575   0   0   0 # n3
    270      1   2  0.000000    15.405330885     3.541837320    17.039012729   0   0   0 # n3
    271      1   3  0.000000    12.694507541     4.319016520    10.731725753   0   0   0 # c3
    272      1   4  0.000000    13.566033409     5.181094100    11.600717555   0   0   0 # c
    273      1   4  0.000000    14.958423093     5.050880380    11.706038031   0   0   0 # c
    274      1   4  0.000000    15.762996517     5.869211460    12.482238188   0   0   0 # c
    275      1   4  0.000000    15.152339520     6.910679860    13.150377188   0   0   0 # c
    276      1   4  0.000000    13.790694681     7.156324000    13.071093187   0   0   0 # c
    277      1   4  0.000000    13.049084960     6.255689160    12.329738838   0   0   0 # c
    278      1   3  0.000000    16.538544630     1.398922560    18.680093666   0   0   0 # c3
    279      1   4  0.000000    17.381085567     2.243139500    17.766076382   0   0   0 # c
    280      1   4  0.000000    18.771116009     2.100737100    17.642354188   0   0   0 # c
    281      1   4  0.000000    19.575230064     2.895354560    16.841096371   0   0   0 # c
    282      1   4  0.000000    18.962976224     3.918901980    16.146137844   0   0   0 # c
    283      1   4  0.000000    17.602898369     4.168407880    16.236971860   0   0   0 # c
    284      1   4  0.000000    16.861597545     3.303796020    17.018849143   0   0   0 # c
    285      1   5  0.000000    11.882668485     4.803064000    10.492894935   0   0   0 # h
    286      1   5  0.000000    12.444093682     3.457482000    11.189811091   0   0   0 # h
    287      1   5  0.000000    13.149086498     4.091052000     9.921267077   0   0   0 # h
    288      1   5  0.000000    16.700232641     5.720232000    12.550363700   0   0   0 # h
    289      1   5  0.000000    13.381664377     7.874370000    13.548754822   0   0   0 # h
    290      1   5  0.000000    16.265922977     0.591332000    18.227489691   0   0   0 # h
    291      1   5  0.000000    15.775941549     1.900710000    18.985092366   0   0   0 # h
    292      1   5  0.000000    17.014630792     1.164562000    19.480372668   0   0   0 # h
    293      1   5  0.000000    20.526362978     2.745470000    16.788631896   0   0   0 # h
    294      1   5  0.000000    17.218009503     4.893574000    15.755003440   0   0   0 # h
    295      1   1  0.000000    14.897010994    17.980957960     8.710473137   0  -1   0 # o
    296      1   1  0.000000    13.261150001     1.256821860     9.102782119   0   0   0 # o
    297      1   1  0.000000    13.065572396     4.303871180     5.036981095   0   0   0 # o
    298      1   1  0.000000    14.380269718     5.965876140     5.543615649   0   0   0 # o
    299      1   1  0.000000    18.882288984     4.493459460     7.591100502   0   0   0 # o
    300      1   1  0.000000    19.091820383     2.497291580     6.759499426   0   0   0 # o
    301      1   1  0.000000    25.953979497     2.950444980     1.140123509   0   0   0 # o
    302      1   1  0.000000    24.402618947     4.384847460     0.615870289   0   0   0 # o
    303      1   1  0.000000    24.074732590     7.348446560     4.689110306   0   0   0 # o
    304      1   1  0.000000    25.561124683     8.925251440     4.530346541   0   0   0 # o
    305      1   1  0.000000    30.254926261     5.613792240     2.786490047   0   0   0 # o
    306      1   1  0.000000    29.898083744     7.696065300     2.290426693   0   0   0 # o
    307      1   2  0.000000    14.355370537     0.977930380     8.619051832   0   0   0 # n3
    308      1   2  0.000000    14.037478293     4.788944440     5.607434375   0   0   0 # n3
    309      1   2  0.000000    18.427435719     3.425260440     7.206426275   0   0   0 # n3
    310      1   2  0.000000    25.452042707     4.074337820     1.168704902   0   0   0 # n3
    311      1   2  0.000000    25.136120522     7.802505060     4.279769945   0   0   0 # n3
    312      1   2  0.000000    29.517469032     6.558837320     2.537283792   0   0   0 # n3
    313      1   3  0.000000    17.316992375     1.302016520     8.844570768   0   0   0 # c3
    314      1   4  0.000000    16.445466507     2.164094100     7.975578966   0   0   0 # c
    315      1   4  0.000000    15.053076823     2.033880380     7.870258490   0   0   0 # c
    316      1   4  0.000000    14.248503400     2.852211460     7.094058333   0   0   0 # c
    317      1   4  0.000000    14.859160396     3.893679860     6.425919333   0   0   0 # c